LAMMPS data file. CGCMM style. atom_style full generated by VMD/TopoTools v1.7 on Fri Mar 11 13:39:40 +0800 2022
 7722 atoms
 5361 bonds
 3500 angles
 1677 dihedrals
 20 impropers
 10 atom types
 13 bond types
 31 angle types
 51 dihedral types
 1 improper types
 -0.035319 19.964681  xlo xhi
 0.039905 30.039905  ylo yhi
 -0.039466 162.492440  zlo zhi

Pair Coeffs

   3   0.0389999952   3.8754094636 # c1
   7   0.0389999952   3.8754094636 # c2
   8   0.0380000011   2.4499714540 # h
  10   0.0380000011   2.4499714540 # h*
   6   0.0380000011   2.4499714540 # hn
   1   0.0380000011   2.4499714540 # ho
   5   0.1669999743   3.5012320066 # n3
   4   0.2280000124   2.8597848722 # o
   9   0.1554164124   3.1655200879 # o*
   2   0.2280000124   2.8597848722 # oh

Bond Coeffs
#
1	540.6336	0.96	#	ho-oh
2	322.7158	1.526	#	c1-c2
3	356.5988	1.47	#	c1-n3
4	457.4592	1.026	#	n3-hn
5	273.2	1.425	#	o-c2
6	340.6175	1.105	#	c2-h
7	322.7158	1.526	#	c2-c2
8	384	1.42	#	oh-c2
9	540.6336	0.96	#	o*-h*
10	384	1.42	#	oh-c1
11	273.2	1.425	#	c1-o
12	322.7158	1.526	#	c1-c1
13	340.6175	1.105	#	c1-h

Angle Coeffs
#
1	58.5	106	#	ho-oh-c1
2	46.6	110.5	#	c1-c1-c1
3	44.4	110	#	c2-c2-h
4	58.5	106	#	ho-oh-c2
5	70	109.5	#	o-c1-o
6	46.6	110.5	#	c2-c1-c2
7	46.6	110.5	#	c1-c2-c1
8	70	109.5	#	oh-c1-c2
9	50	104.5	#	h*-o*-h*
10	70	109.5	#	c1-c1-o
11	70	109.5	#	oh-c1-o
12	57	109.5	#	o-c1-h
13	70	109.5	#	oh-c1-c1
14	44.4	110	#	c1-c1-h
15	57	109.5	#	oh-c1-h
16	60	109.5	#	c1-o-c1
17	46.6	110.5	#	c1-c1-c2
18	70	109.5	#	o-c1-c2
19	44.4	110	#	c2-c1-h
20	50	109.5	#	c1-c1-n3
21	57.3	109.5	#	n3-c1-h
22	41.6	110	#	c1-n3-hn
23	36	105.5	#	hn-n3-hn
24	70	109.5	#	c1-c2-o
25	44.4	110	#	c1-c2-h
26	57	109.5	#	o-c2-h
27	39.5	106.4	#	h-c2-h
28	60	109.5	#	c2-o-c2
29	70	109.5	#	o-c2-c2
30	70	109.5	#	oh-c2-c2
31	57	109.5	#	oh-c2-h

Dihedral Coeffs
#
1	0.13	1	3	#	ho-oh-c1-o
2	0.1581	1	3	#	oh-c1-c1-h
3	0.1581	1	3	#	o-c1-c2-o
4	0.13	1	3	#	c2-o-c2-c2
5	0.1581	1	3	#	h-c1-c2-c1
6	0.1581	1	3	#	oh-c1-c2-c1
7	0.1581	1	3	#	oh-c1-c2-h
8	0.1581	1	3	#	n3-c1-c1-c2
9	0.13	1	3	#	ho-oh-c1-c2
10	0.13	1	3	#	ho-oh-c1-c1
11	0.13	1	3	#	ho-oh-c1-h
12	0.13	1	3	#	c1-c1-o-c1
13	0.13	1	3	#	oh-c1-o-c1
14	0.13	1	3	#	h-c1-o-c1
15	0.1581	1	3	#	c1-c1-c1-o
16	0.1581	1	3	#	o-c1-c1-n3
17	0.1581	1	3	#	o-c1-c1-h
18	0.1581	1	3	#	oh-c1-c1-c1
19	0.1581	1	3	#	oh-c1-c1-n3
20	0.1581	1	3	#	c1-c1-c1-h
21	0.1581	1	3	#	n3-c1-c1-h
22	0.1581	1	3	#	h-c1-c1-h
23	0.13	1	3	#	c2-c1-o-c1
24	0.1581	1	3	#	o-c1-c1-o
25	0.1581	1	3	#	c1-c1-c1-c2
26	0.1581	1	3	#	o-c1-c1-c2
27	0.1581	1	3	#	c2-c1-c1-h
28	0.1581	1	3	#	c1-c1-c2-o
29	0.1581	1	3	#	c1-c1-c2-h
30	0.1581	1	3	#	o-c1-c2-h
31	0.1581	1	3	#	h-c1-c2-o
32	0.1581	1	3	#	h-c1-c2-h
33	0.1581	1	3	#	c1-c1-c1-c1
34	0.1581	1	3	#	oh-c1-c1-o
35	0.1581	1	3	#	c1-c1-c1-n3
36	0.1333	1	3	#	c1-c1-n3-hn
37	0.1333	1	3	#	h-c1-n3-hn
38	0.13	1	3	#	c2-o-c2-c1
39	0.13	1	3	#	c2-o-c2-h
40	0.1581	1	3	#	oh-c2-c2-o
41	0.1581	1	3	#	o-c2-c2-h
42	0.1581	1	3	#	oh-c2-c2-h
43	0.1581	1	3	#	h-c2-c2-h
44	0.13	1	3	#	ho-oh-c2-c2
45	0.13	1	3	#	ho-oh-c2-h
46	0.13	1	3	#	o-c1-o-c1
47	0.1581	1	3	#	o-c1-c2-c1
48	0.1581	1	3	#	c2-c1-c2-c1
49	0.1581	1	3	#	c2-c1-c2-h
50	0.1581	1	3	#	c2-c1-c2-o
51	0.1581	1	3	#	c1-c1-c2-c1

Improper Coeffs
#
   1     0.0000   1   0 # c1-n3-hn-hn

 Masses

 1 12.011150 # c1
 2 12.011150 # c2
 3 1.007970 # h
 4 1.007970 # h*
 5 1.007970 # hn
 6 1.007970 # ho
 7 14.006700 # n3
 8 15.999400 # o
 9 15.999400 # o*
 10 15.999400 # oh

 Atoms # full

1 1 6 0.350000 10.101284 14.796970 148.108734 # ho 
2 1 10 -0.380000 9.416744 13.993210 147.765976 # oh 
3 1 1 0.080000 9.360626 13.988335 146.227005 # c1 
4 1 8 -0.300000 10.380085 14.079079 145.076324 # o 
5 1 1 0.050000 10.325176 14.074314 143.537323 # c1 
6 1 1 0.050000 9.152912 13.970139 142.544067 # c1 
7 1 1 0.120000 8.183308 13.883709 145.239807 # c1 
8 1 1 -0.070000 8.053112 13.872246 143.705368 # c1 
9 1 7 -0.500000 6.659603 13.748180 145.417404 # n3 
10 1 5 0.140000 6.405258 13.816448 146.495712 # hn 
11 1 10 -0.380000 6.523476 13.736198 143.820740 # oh 
12 1 2 -0.050000 11.853809 14.210266 143.409256 # c2 
13 1 8 -0.300000 12.551708 14.272442 142.037888 # o 
14 1 2 -0.050000 11.508205 14.179729 140.909119 # c2 
15 1 2 -0.170000 12.512135 14.269089 139.744751 # c2 
16 1 10 -0.380000 11.303745 14.161697 138.796143 # oh 
17 1 5 0.140000 6.148649 14.563782 144.864380 # hn 
18 1 6 0.350000 6.229689 13.758698 144.890930 # ho 
19 1 3 0.100000 12.319809 13.344952 143.986893 # h 
20 1 3 0.100000 12.193066 15.174889 143.913269 # h 
21 1 3 0.100000 10.799809 15.072838 140.920044 # h 
22 1 3 0.100000 10.940834 13.194778 140.996109 # h 
23 1 3 0.100000 13.201618 13.363152 139.685760 # h 
24 1 3 0.100000 13.082127 15.254265 139.809235 # h 
25 1 6 0.350000 11.504795 14.744896 137.873337 # ho 
26 1 3 0.100000 9.259647 15.123856 146.227112 # h 
27 1 3 0.100000 10.224194 15.209831 143.537415 # h 
28 1 3 0.100000 9.253895 12.834618 142.543991 # h 
29 1 3 0.100000 8.082325 15.019226 145.239899 # h 
30 1 3 0.100000 7.952129 15.007759 143.705460 # h 
31 2 8 -0.300000 9.104015 13.965904 141.034866 # o 
32 2 1 0.200000 9.055008 13.961662 139.495651 # c1 
33 2 8 -0.300000 10.079765 14.052883 138.349747 # o 
34 2 1 0.050000 10.031975 14.048748 136.810471 # c1 
35 2 1 0.050000 8.864307 13.944977 135.811783 # c1 
36 2 1 0.120000 7.882263 13.857441 138.502975 # c1 
37 2 1 -0.070000 7.759155 13.846607 136.967941 # c1 
38 2 7 -0.500000 6.357748 13.721848 138.673477 # n3 
39 2 5 0.140000 6.098898 13.784908 139.751022 # hn 
40 2 10 -0.380000 6.229002 13.710518 137.076202 # oh 
41 2 2 -0.050000 11.561180 14.184753 136.689545 # c2 
42 2 8 -0.300000 12.265411 14.247490 135.321426 # o 
43 2 2 -0.050000 11.227135 14.155235 134.187820 # c2 
44 2 2 -0.170000 12.236423 14.245083 133.028137 # c2 
45 2 10 -0.380000 11.032436 14.138081 132.073914 # oh 
46 2 5 0.140000 5.849546 14.540436 138.122345 # hn 
47 2 6 0.350000 5.930719 13.727760 138.145233 # ho 
48 2 3 0.100000 12.024506 13.319191 137.268951 # h 
49 2 3 0.100000 11.898106 15.149162 137.195511 # h 
50 2 3 0.100000 10.518696 15.048344 134.195847 # h 
51 2 3 0.100000 10.659363 13.170254 134.271774 # h 
52 2 3 0.100000 12.926178 13.339165 132.971954 # h 
53 2 3 0.100000 12.806118 15.230221 133.095657 # h 
54 2 6 0.350000 11.236666 14.723793 131.153412 # ho 
55 2 3 0.100000 9.155994 12.826141 139.495575 # h 
56 2 3 0.100000 10.132957 12.913231 136.810394 # h 
57 2 3 0.100000 8.965292 12.809464 135.811691 # h 
58 2 3 0.100000 7.983248 12.721916 138.502884 # h 
59 2 3 0.100000 7.658173 14.982124 136.968033 # h 
60 3 8 -0.300000 8.822382 13.941368 134.302368 # o 
61 3 1 0.200000 8.780491 13.937752 132.762939 # c1 
62 3 8 -0.300000 9.810534 14.029446 131.621811 # o 
63 3 1 0.050000 9.769852 14.025944 130.082352 # c1 
64 3 1 0.050000 8.606812 13.922588 129.078232 # c1 
65 3 1 0.120000 7.612345 13.833946 131.764816 # c1 
66 3 1 -0.070000 7.496328 13.823738 130.229233 # c1 
67 3 7 -0.500000 6.087059 13.698280 131.928223 # n3 
68 3 5 0.140000 5.823692 13.756126 133.004974 # hn 
69 3 10 -0.380000 5.965698 13.687614 130.330353 # oh 
70 3 2 -0.050000 11.299603 14.161999 129.968536 # c2 
71 3 8 -0.300000 12.010149 14.225288 128.603714 # o 
72 3 2 -0.050000 10.977119 14.133507 127.465286 # c2 
73 3 2 -0.170000 11.991760 14.223827 126.310318 # c2 
74 3 10 -0.380000 10.792183 14.117222 125.350494 # oh 
75 3 5 0.140000 5.581585 14.519852 131.379028 # hn 
76 3 6 0.350000 5.662916 13.699593 131.398209 # ho 
77 3 3 0.100000 11.760250 13.296200 130.549728 # h 
78 3 3 0.100000 11.634186 15.126194 130.476440 # h 
79 3 3 0.100000 10.268644 15.026619 127.470383 # h 
80 3 3 0.100000 10.408966 13.148491 127.546204 # h 
81 3 3 0.100000 12.681759 13.317932 126.256958 # h 
82 3 3 0.100000 12.561125 15.208939 126.380875 # h 
83 3 6 0.350000 10.999592 14.705433 124.432281 # ho 
84 3 3 0.100000 8.881475 12.802231 132.762863 # h 
85 3 3 0.100000 9.668865 15.161465 130.082443 # h 
86 3 3 0.100000 8.707798 12.787071 129.078140 # h 
87 3 3 0.100000 7.511358 14.969460 131.764908 # h 
88 3 3 0.100000 7.597315 12.688221 130.229141 # h 
89 4 8 -0.300000 8.571861 13.919594 127.568649 # o 
90 4 1 0.200000 8.537085 13.916615 126.029022 # c1 
91 4 8 -0.300000 9.572386 14.008774 124.892700 # o 
92 4 1 0.050000 9.538816 14.005905 123.353058 # c1 
93 4 1 0.050000 8.380428 13.902962 122.343552 # c1 
94 4 1 0.120000 7.373562 13.813213 125.025467 # c1 
95 4 1 -0.070000 7.264639 13.803646 123.489365 # c1 
96 4 7 -0.500000 5.847536 13.677490 125.181778 # n3 
97 4 5 0.140000 5.579662 13.730114 126.257690 # hn 
98 4 10 -0.380000 5.733557 13.667473 123.583359 # oh 
99 4 2 -0.050000 11.069077 14.141998 123.246368 # c2 
100 4 8 -0.300000 11.785921 14.205856 121.884888 # o 
101 4 2 -0.050000 10.758162 14.114540 120.741653 # c2 
102 4 2 -0.170000 11.778128 14.205334 119.591415 # c2 
103 4 10 -0.380000 10.583002 14.099125 118.626022 # oh 
104 4 5 0.140000 5.344765 14.502026 124.634537 # hn 
105 4 6 0.350000 5.426283 13.674198 124.649963 # ho 
106 4 3 0.100000 11.527033 13.275963 123.829346 # h 
107 4 3 0.100000 11.401308 15.105991 123.756226 # h 
108 4 3 0.100000 10.049671 15.007648 120.743866 # h 
109 4 3 0.100000 10.189642 13.129494 120.819550 # h 
110 4 3 0.100000 12.468369 13.299458 119.540878 # h 
111 4 3 0.100000 12.347160 15.190414 119.665009 # h 
112 4 6 0.350000 10.793571 14.689819 117.710129 # ho 
113 4 3 0.100000 8.436096 15.052132 126.029114 # h 
114 4 3 0.100000 9.639803 12.870384 123.352982 # h 
115 4 3 0.100000 8.481417 12.767441 122.343460 # h 
116 4 3 0.100000 7.474546 12.677696 125.025391 # h 
117 4 3 0.100000 7.163654 14.939163 123.489441 # h 
118 5 8 -0.300000 8.352457 13.900589 120.833801 # o 
119 5 1 0.200000 8.324791 13.898239 119.294052 # c1 
120 5 8 -0.300000 9.365332 13.990868 118.162552 # o 
121 5 1 0.050000 9.338875 13.988628 116.622787 # c1 
122 5 1 0.050000 8.185165 13.886101 115.607880 # c1 
123 5 1 0.120000 7.165918 13.795258 118.285095 # c1 
124 5 1 -0.070000 7.064096 13.786316 116.748489 # c1 
125 5 7 -0.500000 5.639185 13.659466 118.434265 # n3 
126 5 5 0.140000 5.366802 13.706867 119.509293 # hn 
127 5 10 -0.380000 5.532595 13.650108 116.835358 # oh 
128 5 2 -0.050000 10.869610 14.124771 116.523224 # c2 
129 5 8 -0.300000 11.592739 14.189182 115.165085 # o 
130 5 2 -0.050000 10.570272 14.098339 114.017075 # c2 
131 5 2 -0.170000 11.595543 14.189606 112.871613 # c2 
132 5 10 -0.380000 10.404888 14.083786 111.900650 # oh 
133 5 5 0.140000 5.139097 14.486950 117.889038 # hn 
134 5 6 0.350000 5.220837 13.651569 117.900665 # ho 
135 5 3 0.100000 11.324871 13.258495 117.107941 # h 
136 5 3 0.100000 11.199482 15.088551 117.034988 # h 
137 5 3 0.100000 9.861780 14.991444 114.016373 # h 
138 5 3 0.100000 10.001398 13.113262 114.091934 # h 
139 5 3 0.100000 12.286005 13.283749 112.823883 # h 
140 5 3 0.100000 12.164230 15.174656 112.948212 # h 
141 5 6 0.350000 10.618605 14.676941 110.987091 # ho 
142 5 3 0.100000 8.223804 15.033760 119.294128 # h 
143 5 3 0.100000 9.439861 12.853111 116.622696 # h 
144 5 3 0.100000 8.286150 12.750584 115.607788 # h 
145 5 3 0.100000 7.064930 14.930775 118.285172 # h 
146 5 3 0.100000 7.165079 12.650803 116.748398 # h 
147 6 8 -0.300000 8.164169 13.884354 114.098022 # o 
148 6 1 0.200000 8.143614 13.882637 112.558151 # c1 
149 6 8 -0.300000 9.189375 13.975723 111.431519 # o 
150 6 1 0.050000 9.170033 13.974117 109.891647 # c1 
151 6 1 0.050000 8.021023 13.872009 108.871368 # c1 
152 6 1 0.120000 6.989416 13.780067 111.543808 # c1 
153 6 1 -0.070000 6.894697 13.771759 110.006744 # c1 
154 6 7 -0.500000 5.462011 13.644218 111.685883 # n3 
155 6 5 0.140000 5.185120 13.686386 112.759964 # hn 
156 6 10 -0.380000 5.362806 13.635517 110.086487 # oh 
157 6 2 -0.050000 10.701210 14.110302 109.799210 # c2 
158 6 8 -0.300000 11.430607 14.175270 108.444443 # o 
159 6 2 -0.050000 10.413454 14.084896 107.291702 # c2 
160 6 2 -0.170000 11.444004 14.176636 106.151016 # c2 
161 6 10 -0.380000 10.257853 14.071220 105.174530 # oh 
162 6 5 0.140000 4.964579 14.474632 111.142670 # hn 
163 6 6 0.350000 5.046568 13.631710 111.150467 # ho 
164 6 3 0.100000 11.153763 13.243782 110.385681 # h 
165 6 3 0.100000 11.028713 15.073868 110.312897 # h 
166 6 3 0.100000 9.704971 14.978004 107.288086 # h 
167 6 3 0.100000 9.844242 13.099792 107.363525 # h 
168 6 3 0.100000 12.134686 13.270798 106.106110 # h 
169 6 3 0.100000 12.012331 15.161652 106.230667 # h 
170 6 6 0.350000 10.474707 14.666813 104.263290 # ho 
171 6 3 0.100000 8.244600 12.747124 112.558075 # h 
172 6 3 0.100000 9.069048 15.109642 109.891724 # h 
173 6 3 0.100000 8.122009 12.736496 108.871292 # h 
174 6 3 0.100000 6.888430 14.915588 111.543900 # h 
175 6 3 0.100000 6.793709 14.907280 110.006836 # h 
176 7 8 -0.300000 8.007002 13.870880 107.361435 # o 
177 7 1 0.200000 7.993561 13.869801 105.821503 # c1 
178 7 8 -0.300000 9.044516 13.963348 104.699738 # o 
179 7 1 0.050000 9.032286 13.962379 103.159790 # c1 
180 7 1 0.050000 7.888006 13.860691 102.134171 # c1 
181 7 1 0.120000 6.844059 13.767654 104.801788 # c1 
182 7 1 -0.070000 6.756445 13.759975 103.264297 # c1 
183 7 7 -0.500000 5.316019 13.631744 104.936752 # n3 
184 7 5 0.140000 5.034620 13.668674 106.009842 # hn 
185 7 10 -0.380000 5.224205 13.623703 103.336899 # oh 
186 7 2 -0.050000 10.563879 14.098591 103.074478 # c2 
187 7 8 -0.300000 11.299522 14.164120 101.723129 # o 
188 7 2 -0.050000 10.287710 14.074223 100.565659 # c2 
189 7 2 -0.170000 11.323517 14.166424 99.429787 # c2 
190 7 10 -0.380000 10.141888 14.061413 98.447784 # oh 
191 7 5 0.140000 4.821213 14.465065 104.395599 # hn 
192 7 6 0.350000 4.903486 13.614628 104.399521 # ho 
193 7 3 0.100000 11.013718 13.231834 103.662674 # h 
194 7 3 0.100000 10.889004 15.061951 103.590073 # h 
195 7 3 0.100000 9.579252 14.967331 100.559143 # h 
196 7 3 0.100000 9.718170 13.089088 100.634445 # h 
197 7 3 0.100000 12.014399 13.260601 99.387695 # h 
198 7 3 0.100000 11.891470 15.151405 99.512466 # h 
199 7 6 0.350000 10.361872 14.659424 97.538895 # ho 
200 7 3 0.100000 7.892576 15.005318 105.821579 # h 
201 7 3 0.100000 8.931303 15.097897 103.159882 # h 
202 7 3 0.100000 7.988991 12.725174 102.134094 # h 
203 7 3 0.100000 6.743078 14.903168 104.801865 # h 
204 7 3 0.100000 6.857428 12.624451 103.264206 # h 
205 8 8 -0.300000 7.880960 13.860180 100.624191 # o 
206 8 1 0.200000 7.874636 13.859730 99.084213 # c1 
207 8 8 -0.300000 8.930761 13.953743 97.967354 # o 
208 8 1 0.050000 8.925648 13.953403 96.427361 # c1 
209 8 1 0.050000 7.786116 13.852139 95.396439 # c1 
210 8 1 0.120000 6.729856 13.757999 98.059151 # c1 
211 8 1 -0.070000 6.649343 13.750957 96.521271 # c1 
212 8 7 -0.500000 5.201208 13.622044 98.186996 # n3 
213 8 5 0.140000 4.915302 13.653728 99.259079 # hn 
214 8 10 -0.380000 5.116783 13.614658 96.586739 # oh 
215 8 2 -0.050000 10.457617 14.089653 96.349190 # c2 
216 8 8 -0.300000 11.199495 14.155727 95.001282 # o 
217 8 2 -0.050000 10.193043 14.066311 93.839111 # c2 
218 8 2 -0.170000 11.234085 14.158978 92.708069 # c2 
219 8 10 -0.380000 10.057007 14.054371 91.720581 # oh 
220 8 5 0.140000 4.709007 14.458252 97.647934 # hn 
221 8 6 0.350000 4.791595 13.600319 97.647942 # ho 
222 8 3 0.100000 10.904734 13.222649 96.939102 # h 
223 8 3 0.100000 10.780354 15.052792 96.866684 # h 
224 8 3 0.100000 9.484619 14.959423 93.829681 # h 
225 8 3 0.100000 9.623194 13.081146 93.904861 # h 
226 8 3 0.100000 11.925156 13.253174 92.668793 # h 
227 8 3 0.100000 11.801653 15.143925 92.793777 # h 
228 8 6 0.350000 10.280106 14.654781 90.814026 # ho 
229 8 3 0.100000 7.773647 14.995251 99.084290 # h 
230 8 3 0.100000 8.824661 15.088921 96.427444 # h 
231 8 3 0.100000 7.887102 12.716621 95.396347 # h 
232 8 3 0.100000 6.628872 14.893520 98.059235 # h 
233 8 3 0.100000 6.750330 12.615437 96.521194 # h 
234 9 8 -0.300000 7.786045 13.852245 93.886436 # o 
235 9 1 0.200000 7.786835 13.852432 92.346436 # c1 
236 9 8 -0.300000 8.848112 13.946896 91.234512 # o 
237 9 1 0.050000 8.850113 13.947189 89.694519 # c1 
238 9 1 0.050000 7.715355 13.846352 88.658295 # c1 
239 9 1 0.120000 6.646809 13.751122 91.316055 # c1 
240 9 1 -0.070000 6.573400 13.744713 89.777832 # c1 
241 9 7 -0.500000 5.117584 13.615116 91.436783 # n3 
242 9 5 0.140000 4.827178 13.641552 92.507797 # hn 
243 9 10 -0.380000 5.040555 13.608383 89.836151 # oh 
244 9 2 -0.050000 10.382427 14.083469 89.623474 # c2 
245 9 8 -0.300000 11.130524 14.150101 88.279037 # o 
246 9 2 -0.050000 10.129450 14.061165 87.112183 # c2 
247 9 2 -0.170000 11.175709 14.154293 85.986008 # c2 
248 9 10 -0.380000 10.003206 14.050091 84.993050 # oh 
249 9 5 0.140000 4.627959 14.454197 90.899841 # hn 
250 9 6 0.350000 4.710898 13.588779 90.895889 # ho 
251 9 3 0.100000 10.826815 13.216228 90.215088 # h 
252 9 3 0.100000 10.702772 15.046402 90.142838 # h 
253 9 3 0.100000 9.421080 14.954281 87.099861 # h 
254 9 3 0.100000 9.559305 13.075974 87.174911 # h 
255 9 3 0.100000 11.866951 13.248501 85.949570 # h 
256 9 3 0.100000 11.742874 15.139206 86.074745 # h 
257 9 6 0.350000 10.229410 14.652882 84.088852 # ho 
258 9 3 0.100000 7.887823 12.716911 92.346344 # h 
259 9 3 0.100000 8.749130 15.082710 89.694595 # h 
260 9 3 0.100000 7.816343 12.710838 88.658203 # h 
261 9 3 0.100000 6.747793 12.615604 91.315979 # h 
262 9 3 0.100000 6.472414 14.880230 89.777908 # h 
263 10 8 -0.300000 7.722265 13.847084 87.148308 # o 
264 10 1 0.200000 7.730171 13.847900 85.608322 # c1 
265 10 8 -0.300000 8.796570 13.942822 84.501358 # o 
266 10 1 0.050000 8.805687 13.943745 82.961388 # c1 
267 10 1 0.050000 7.675728 13.843334 81.919891 # c1 
268 10 1 0.120000 6.594913 13.747017 84.572655 # c1 
269 10 1 -0.070000 6.528612 13.741234 83.034088 # c1 
270 10 7 -0.500000 5.065147 13.610958 84.686256 # n3 
271 10 5 0.140000 4.770239 13.632149 85.756149 # hn 
272 10 10 -0.380000 4.995514 13.604885 83.085281 # oh 
273 10 2 -0.050000 10.338312 14.080055 82.897484 # c2 
274 10 8 -0.300000 11.092613 14.147236 81.556549 # o 
275 10 2 -0.050000 10.096941 14.058777 80.385040 # c2 
276 10 2 -0.170000 11.148392 14.152367 79.263756 # c2 
277 10 10 -0.380000 9.980490 14.048580 78.265335 # oh 
278 10 5 0.140000 4.578075 14.452896 84.151459 # hn 
279 10 6 0.350000 4.661396 13.580009 84.143509 # ho 
280 10 3 0.100000 10.779961 13.212566 83.490784 # h 
281 10 3 0.100000 10.656252 15.042770 83.418716 # h 
282 10 3 0.100000 9.388636 14.951900 80.369812 # h 
283 10 3 0.100000 9.526512 13.073563 80.444725 # h 
284 10 3 0.100000 11.839798 13.246597 79.230125 # h 
285 10 3 0.100000 11.715137 15.137245 79.355515 # h 
286 10 6 0.350000 10.209787 14.653728 77.363503 # ho 
287 10 3 0.100000 7.831154 12.712379 85.608246 # h 
288 10 3 0.100000 8.906672 12.808231 82.961304 # h 
289 10 3 0.100000 7.776714 12.707817 81.919807 # h 
290 10 3 0.100000 6.493928 14.882538 84.572739 # h 
291 10 3 0.100000 6.629599 12.605717 83.034012 # h 
292 11 8 -0.300000 7.689610 13.844685 80.409958 # o 
293 11 1 0.200000 7.704632 13.846134 78.870026 # c1 
294 11 8 -0.300000 8.776136 13.941509 77.768036 # o 
295 11 1 0.050000 8.792366 13.943069 76.228127 # c1 
296 11 1 0.050000 7.667233 13.843086 75.181381 # c1 
297 11 1 0.120000 6.574174 13.745682 77.829086 # c1 
298 11 1 -0.070000 6.514982 13.740528 76.290222 # c1 
299 11 7 -0.500000 5.043900 13.609577 77.935562 # n3 
300 11 5 0.140000 4.744494 13.625507 79.004303 # hn 
301 11 10 -0.380000 4.981666 13.604164 76.334274 # oh 
302 11 2 -0.050000 10.325272 14.079399 76.171356 # c2 
303 11 8 -0.300000 11.085762 14.147133 74.833954 # o 
304 11 2 -0.050000 10.095512 14.059155 73.657822 # c2 
305 11 2 -0.170000 11.152132 14.153210 72.541443 # c2 
306 11 10 -0.380000 9.988853 14.049831 71.537598 # oh 
307 11 5 0.140000 4.559356 14.454346 77.402939 # hn 
308 11 6 0.350000 4.643090 13.574017 77.390945 # ho 
309 11 3 0.100000 10.764177 13.211670 76.766342 # h 
310 11 3 0.100000 10.640799 15.041901 76.694458 # h 
311 11 3 0.100000 9.387280 14.952286 73.639694 # h 
312 11 3 0.100000 9.524815 13.073917 73.714462 # h 
313 11 3 0.100000 11.843685 13.247448 72.510635 # h 
314 11 3 0.100000 11.718445 15.138046 72.636215 # h 
315 11 6 0.350000 10.221237 14.657322 70.638130 # ho 
316 11 3 0.100000 7.805618 12.710617 78.869949 # h 
317 11 3 0.100000 8.691383 15.078587 76.228210 # h 
318 11 3 0.100000 7.768218 12.707569 75.181290 # h 
319 11 3 0.100000 6.473189 14.881199 77.829163 # h 
320 11 3 0.100000 6.615968 12.605011 76.290146 # h 
321 12 8 -0.300000 7.688094 13.845055 73.671524 # o 
322 12 1 0.200000 7.710230 13.847141 72.131683 # c1 
323 12 8 -0.300000 8.786814 13.942970 71.034698 # o 
324 12 1 0.050000 8.810158 13.945156 69.494873 # c1 
325 12 1 0.050000 7.689873 13.845608 68.442902 # c1 
326 12 1 0.120000 6.584592 13.747116 71.085480 # c1 
327 12 1 -0.070000 6.532512 13.742599 69.546371 # c1 
328 12 7 -0.500000 5.053842 13.610970 71.184830 # n3 
329 12 5 0.140000 4.749943 13.621643 72.252365 # hn 
330 12 10 -0.380000 4.999003 13.606216 69.583282 # oh 
331 12 2 -0.050000 10.343307 14.081512 69.445251 # c2 
332 12 8 -0.300000 11.109966 14.149792 68.111389 # o 
333 12 2 -0.050000 10.125164 14.062302 66.930672 # c2 
334 12 2 -0.170000 11.186930 14.156811 65.819221 # c2 
335 12 10 -0.380000 10.028301 14.053844 64.809975 # oh 
336 12 5 0.140000 4.571798 14.458549 70.654419 # hn 
337 12 6 0.350000 4.605149 13.576103 68.545944 # ho 
338 12 3 0.100000 10.779459 13.213531 70.041893 # h 
339 12 3 0.100000 10.656416 15.043797 69.970192 # h 
340 12 3 0.100000 9.417023 14.955437 66.909630 # h 
341 12 3 0.100000 9.554211 13.077042 66.984268 # h 
342 12 3 0.100000 11.878620 13.251060 65.791237 # h 
343 12 3 0.100000 11.752800 15.141605 65.917015 # h 
344 12 6 0.350000 10.263760 14.663654 63.912872 # ho 
345 12 3 0.100000 7.609242 14.982658 72.131775 # h 
346 12 3 0.100000 8.911140 12.809639 69.494789 # h 
347 12 3 0.100000 7.790859 12.710091 68.442810 # h 
348 12 3 0.100000 6.685576 12.611599 71.085403 # h 
349 12 3 0.100000 6.431525 14.878113 69.546455 # h 
350 13 8 -0.300000 7.717707 13.848194 66.933159 # o 
351 13 1 0.200000 7.746957 13.850914 65.393433 # c1 
352 13 8 -0.300000 8.828596 13.947189 64.301476 # o 
353 13 1 0.050000 8.859058 13.950016 62.761780 # c1 
354 13 1 0.050000 7.743643 13.850899 61.704597 # c1 
355 13 1 0.120000 6.626164 13.751320 64.342010 # c1 
356 13 1 -0.070000 6.581196 13.747437 62.802670 # c1 
357 13 7 -0.500000 5.094973 13.615139 64.434227 # n3 
358 13 5 0.140000 4.786584 13.620548 65.500519 # hn 
359 13 10 -0.380000 5.047535 13.611038 62.832436 # oh 
360 13 2 -0.050000 10.392418 14.086384 62.719292 # c2 
361 13 8 -0.300000 11.165234 14.155212 61.389023 # o 
362 13 2 -0.050000 10.185894 14.068207 60.203724 # c2 
363 13 2 -0.170000 11.252785 14.163174 59.097233 # c2 
364 13 10 -0.380000 10.098831 14.060623 58.082603 # oh 
365 13 5 0.140000 4.615402 14.465511 63.906044 # hn 
366 13 6 0.350000 4.658049 13.586182 61.793312 # ho 
367 13 3 0.100000 10.825809 13.218163 63.317589 # h 
368 13 3 0.100000 10.703098 15.048454 63.246075 # h 
369 13 3 0.100000 9.477859 14.961353 60.179779 # h 
370 13 3 0.100000 9.614700 13.082928 60.254280 # h 
371 13 3 0.100000 11.944595 13.257435 59.072075 # h 
372 13 3 0.100000 11.818197 15.147930 59.198048 # h 
373 13 6 0.350000 10.337353 14.672737 57.187878 # ho 
374 13 3 0.100000 7.847941 12.715393 65.393356 # h 
375 13 3 0.100000 8.758072 15.085533 62.761864 # h 
376 13 3 0.100000 7.844630 12.715378 61.704514 # h 
377 13 3 0.100000 6.525181 14.886837 64.342094 # h 
378 13 3 0.100000 6.682180 12.611916 62.802582 # h 
379 14 8 -0.300000 7.778452 13.854107 60.195004 # o 
380 14 1 0.200000 7.814815 13.857460 58.655434 # c1 
381 14 8 -0.300000 8.901489 13.954182 57.568520 # o 
382 14 1 0.050000 8.939064 13.957638 56.028984 # c1 
383 14 1 0.050000 7.828545 13.858959 54.966621 # c1 
384 14 1 0.120000 6.698894 13.758293 57.598797 # c1 
385 14 1 -0.070000 6.661036 13.755043 56.059265 # c1 
386 14 7 -0.500000 5.167291 13.622078 57.683887 # n3 
387 14 5 0.140000 4.854418 13.622227 58.748878 # hn 
388 14 10 -0.380000 5.127256 13.618641 56.081890 # oh 
389 14 2 -0.050000 10.472603 14.094025 55.993637 # c2 
390 14 8 -0.300000 11.251556 14.163395 54.666977 # o 
391 14 2 -0.050000 10.277704 14.076881 53.477135 # c2 
392 14 2 -0.170000 11.349695 14.172298 52.375622 # c2 
393 14 10 -0.380000 10.200443 14.070168 51.355629 # oh 
394 14 5 0.140000 4.690168 14.475224 57.157963 # hn 
395 14 6 0.350000 4.742144 13.599045 55.041023 # ho 
396 14 3 0.100000 10.903225 13.225552 56.593575 # h 
397 14 3 0.100000 10.780844 15.055874 56.522243 # h 
398 14 3 0.100000 9.569790 14.970039 53.450287 # h 
399 14 3 0.100000 9.706284 13.091579 53.524643 # h 
400 14 3 0.100000 12.041616 13.266571 52.353287 # h 
401 14 3 0.100000 11.914635 15.157013 52.479454 # h 
402 14 6 0.350000 10.442017 14.684563 50.463295 # ho 
403 14 3 0.100000 7.915801 12.721939 58.655350 # h 
404 14 3 0.100000 8.838078 15.093155 56.029068 # h 
405 14 3 0.100000 7.929532 12.723438 54.966534 # h 
406 14 3 0.100000 6.597908 14.893810 57.598885 # h 
407 14 3 0.100000 6.560052 14.890560 56.059349 # h 
408 15 8 -0.300000 7.870329 13.862785 53.457203 # o 
409 15 1 0.200000 7.913805 13.866772 51.917824 # c1 
410 15 8 -0.300000 9.005487 13.963936 50.835979 # o 
411 15 1 0.050000 9.050173 13.968029 49.296631 # c1 
412 15 1 0.050000 7.944576 13.869781 48.229111 # c1 
413 15 1 0.120000 6.802776 13.768044 50.855999 # c1 
414 15 1 -0.070000 6.772032 13.765427 49.316307 # c1 
415 15 7 -0.500000 5.270798 13.631790 50.933956 # n3 
416 15 5 0.140000 4.953442 13.626675 51.997608 # hn 
417 15 10 -0.380000 5.238163 13.629013 49.331791 # oh 
418 15 2 -0.050000 10.583862 14.104424 49.268429 # c2 
419 15 8 -0.300000 11.368935 14.174343 47.945412 # o 
420 15 2 -0.050000 10.400591 14.088314 46.751045 # c2 
421 15 2 -0.170000 11.477659 14.184185 45.654537 # c2 
422 15 10 -0.380000 10.333132 14.082478 44.629204 # oh 
423 15 5 0.140000 4.796094 14.487690 50.410316 # hn 
424 15 6 0.350000 4.857436 13.614677 48.289227 # ho 
425 15 3 0.100000 11.011707 13.235706 49.869991 # h 
426 15 3 0.100000 10.889656 15.066059 49.798851 # h 
427 15 3 0.100000 9.692806 14.981487 46.721291 # h 
428 15 3 0.100000 9.828957 13.102997 46.795509 # h 
429 15 3 0.100000 12.169678 13.278461 45.635029 # h 
430 15 3 0.100000 12.042114 15.168858 45.761383 # h 
431 15 6 0.350000 10.577747 14.699135 43.739262 # ho 
432 15 3 0.100000 8.014790 12.731251 51.917736 # h 
433 15 3 0.100000 9.151157 12.832508 49.296547 # h 
434 15 3 0.100000 8.045563 12.734268 48.229027 # h 
435 15 3 0.100000 6.903761 12.632526 50.855911 # h 
436 15 3 0.100000 6.671047 14.900944 49.316391 # h 
437 16 8 -0.300000 7.993333 13.874229 46.719902 # o 
438 16 1 0.200000 8.043921 13.878845 45.180740 # c1 
439 16 8 -0.300000 9.140591 13.976463 44.103996 # o 
440 16 1 0.050000 9.192387 13.981178 42.564873 # c1 
441 16 1 0.050000 8.091736 13.883377 41.492214 # c1 
442 16 1 0.120000 6.937811 13.780556 44.113754 # c1 
443 16 1 -0.070000 6.914180 13.778572 42.573940 # c1 
444 16 7 -0.500000 5.405488 13.644279 44.184578 # n3 
445 16 5 0.140000 5.083655 13.633892 45.246849 # hn 
446 16 10 -0.380000 5.380257 13.642155 42.582279 # oh 
447 16 2 -0.050000 10.726189 14.117588 42.543812 # c2 
448 16 8 -0.300000 11.517366 14.188046 41.224464 # o 
449 16 2 -0.050000 10.554554 14.102516 40.025604 # c2 
450 16 2 -0.170000 11.636675 14.198833 38.934120 # c2 
451 16 10 -0.380000 10.496895 14.097546 37.903469 # oh 
452 16 5 0.140000 4.933176 14.502907 43.663254 # hn 
453 16 6 0.350000 5.003921 13.633080 41.538063 # ho 
454 16 3 0.100000 11.151253 13.248627 43.146988 # h 
455 16 3 0.100000 11.029531 15.079006 43.076035 # h 
456 16 3 0.100000 9.846909 14.995697 39.992947 # h 
457 16 3 0.100000 9.982719 13.117176 40.067020 # h 
458 16 3 0.100000 12.328775 13.293121 38.917439 # h 
459 16 3 0.100000 12.200628 15.183460 39.043976 # h 
460 16 6 0.350000 10.744543 14.716446 37.015926 # ho 
461 16 3 0.100000 8.144905 12.743328 45.180656 # h 
462 16 3 0.100000 9.293373 12.845665 42.564789 # h 
463 16 3 0.100000 8.192720 12.747860 41.492126 # h 
464 16 3 0.100000 6.836824 14.916080 44.113842 # h 
465 16 3 0.100000 7.015165 12.643055 42.573853 # h 
466 17 8 -0.300000 8.147463 13.888447 39.983250 # o 
467 17 1 0.200000 8.205162 13.893696 38.444340 # c1 
468 17 8 -0.300000 9.306795 13.991749 37.372711 # o 
469 17 1 0.050000 9.365704 13.997101 35.833847 # c1 
470 17 1 0.050000 8.270018 13.899742 34.756073 # c1 
471 17 1 0.120000 7.103992 13.795845 37.372215 # c1 
472 17 1 -0.070000 7.087477 13.794491 35.832306 # c1 
473 17 7 -0.500000 5.571360 13.659538 37.435902 # n3 
474 17 5 0.140000 5.245054 13.643887 38.496742 # hn 
475 17 10 -0.380000 5.553533 13.658073 35.833500 # oh 
476 17 2 -0.050000 10.899586 14.133514 35.819927 # c2 
477 17 8 -0.300000 11.696850 14.204517 34.504280 # o 
478 17 2 -0.050000 10.739584 14.119476 33.300949 # c2 
479 17 2 -0.170000 11.826738 14.216240 32.214516 # c2 
480 17 10 -0.380000 10.691732 14.115379 31.178568 # oh 
481 17 5 0.140000 5.101412 14.520874 36.916912 # hn 
482 17 6 0.350000 5.181595 13.654259 34.787678 # ho 
483 17 3 0.100000 11.321857 13.264301 36.424706 # h 
484 17 3 0.100000 11.200462 15.094715 36.353943 # h 
485 17 3 0.100000 10.032101 15.012672 33.265388 # h 
486 17 3 0.100000 10.167564 13.134125 33.339317 # h 
487 17 3 0.100000 12.518908 13.310532 32.200661 # h 
488 17 3 0.100000 12.390177 15.200821 32.327381 # h 
489 17 6 0.350000 10.942402 14.736511 30.293430 # ho 
490 17 3 0.100000 8.104176 15.029213 38.444427 # h 
491 17 3 0.100000 9.264715 15.132622 35.833935 # h 
492 17 3 0.100000 8.371002 12.764221 34.755989 # h 
493 17 3 0.100000 7.204976 12.660328 37.372131 # h 
494 17 3 0.100000 7.188463 12.658978 35.832218 # h 
495 18 8 -0.300000 8.332718 13.905434 33.247387 # o 
496 18 1 0.200000 8.397522 13.911308 31.708763 # c1 
497 18 8 -0.300000 9.504095 14.009804 30.642275 # o 
498 18 1 0.050000 9.570112 14.015785 29.103703 # c1 
499 18 1 0.050000 8.479420 13.918873 28.020840 # c1 
500 18 1 0.120000 7.301319 13.813900 30.631519 # c1 
501 18 1 -0.070000 7.291919 13.813179 29.091551 # c1 