LAMMPS data file via write_data, version 29 Oct 2020, timestep = 0

7722 atoms
10 atom types
5361 bonds
13 bond types
3500 angles
31 angle types
1677 dihedrals
51 dihedral types
20 impropers
1 improper types

-0.035319 19.964681 xlo xhi
0.039905 30.039905 ylo yhi
-0.039466 162.49244 zlo zhi

Masses

1 12.01115
2 12.01115
3 1.00797
4 1.00797
5 1.00797
6 1.00797
7 14.0067
8 15.9994
9 15.9994
10 15.9994

Pair Coeffs # lj/cut/coul/long

1 0.038 2.44997
2 0.228 2.85978
3 0.039 3.87541
4 0.228 2.85978
5 0.167 3.50123
6 0.038 2.44997
7 0.039 3.87541
8 0.038 2.44997
9 0.155416 3.16552
10 0.038 2.44997

Bond Coeffs # harmonic

1 540.634 0.96
2 322.716 1.526
3 356.599 1.47
4 457.459 1.026
5 273.2 1.425
6 340.618 1.105
7 322.716 1.526
8 384 1.42
9 540.634 0.96
10 384 1.42
11 273.2 1.425
12 322.716 1.526
13 340.618 1.105

Angle Coeffs # harmonic

1 58.5 106
2 46.6 110.5
3 44.4 110
4 58.5 106
5 70 109.5
6 46.6 110.5
7 46.6 110.5
8 70 109.5
9 50 104.5
10 70 109.5
11 70 109.5
12 57 109.5
13 70 109.5
14 44.4 110
15 57 109.5
16 60 109.5
17 46.6 110.5
18 70 109.5
19 44.4 110
20 50 109.5
21 57.3 109.5
22 41.6 110
23 36 105.5
24 70 109.5
25 44.4 110
26 57 109.5
27 39.5 106.4
28 60 109.5
29 70 109.5
30 70 109.5
31 57 109.5

Dihedral Coeffs # harmonic

1 0.13 1 3
2 0.1581 1 3
3 0.1581 1 3
4 0.13 1 3
5 0.1581 1 3
6 0.1581 1 3
7 0.1581 1 3
8 0.1581 1 3
9 0.13 1 3
10 0.13 1 3
11 0.13 1 3
12 0.13 1 3
13 0.13 1 3
14 0.13 1 3
15 0.1581 1 3
16 0.1581 1 3
17 0.1581 1 3
18 0.1581 1 3
19 0.1581 1 3
20 0.1581 1 3
21 0.1581 1 3
22 0.1581 1 3
23 0.13 1 3
24 0.1581 1 3
25 0.1581 1 3
26 0.1581 1 3
27 0.1581 1 3
28 0.1581 1 3
29 0.1581 1 3
30 0.1581 1 3
31 0.1581 1 3
32 0.1581 1 3
33 0.1581 1 3
34 0.1581 1 3
35 0.1581 1 3
36 0.1333 1 3
37 0.1333 1 3
38 0.13 1 3
39 0.13 1 3
40 0.1581 1 3
41 0.1581 1 3
42 0.1581 1 3
43 0.1581 1 3
44 0.13 1 3
45 0.13 1 3
46 0.13 1 3
47 0.1581 1 3
48 0.1581 1 3
49 0.1581 1 3
50 0.1581 1 3
51 0.1581 1 3

Improper Coeffs # cvff

1 0 1 0

Atoms # full

1 1 6 0.35 10.101284 14.79697 148.108734 0 0 0
2 1 10 -0.38 9.416744 13.99321 147.765976 0 0 0
3 1 1 0.08 9.360626 13.988335 146.227005 0 0 0
4 1 8 -0.3 10.380085 14.079079 145.076324 0 0 0
5 1 1 0.05 10.325176 14.074314 143.537323 0 0 0
6 1 1 0.05 9.152912 13.970139 142.544067 0 0 0
7 1 1 0.12 8.183308 13.883709 145.239807 0 0 0
8 1 1 -0.07 8.053112 13.872246 143.705368 0 0 0
9 1 7 -0.5 6.659603 13.74818 145.417404 0 0 0
10 1 5 0.14 6.405258 13.816448 146.495712 0 0 0
11 1 10 -0.38 6.523476 13.736198 143.82074 0 0 0
12 1 2 -0.05 11.853809 14.210266 143.409256 0 0 0
13 1 8 -0.3 12.551708 14.272442 142.037888 0 0 0
14 1 2 -0.05 11.508205 14.179729 140.909119 0 0 0
15 1 2 -0.17 12.512135 14.269089 139.744751 0 0 0
16 1 10 -0.38 11.303745 14.161697 138.796143 0 0 0
17 1 5 0.14 6.148649 14.563782 144.86438 0 0 0
18 1 6 0.35 6.229689 13.758698 144.89093 0 0 0
19 1 3 0.1 12.319809 13.344952 143.986893 0 0 0
20 1 3 0.1 12.193066 15.174889 143.913269 0 0 0
21 1 3 0.1 10.799809 15.072838 140.920044 0 0 0
22 1 3 0.1 10.940834 13.194778 140.996109 0 0 0
23 1 3 0.1 13.201618 13.363152 139.68576 0 0 0
24 1 3 0.1 13.082127 15.254265 139.809235 0 0 0
25 1 6 0.35 11.504795 14.744896 137.873337 0 0 0
26 1 3 0.1 9.259647 15.123856 146.227112 0 0 0
27 1 3 0.1 10.224194 15.209831 143.537415 0 0 0
28 1 3 0.1 9.253895 12.834618 142.543991 0 0 0
29 1 3 0.1 8.082325 15.019226 145.239899 0 0 0
30 1 3 0.1 7.952129 15.007759 143.70546 0 0 0
31 2 8 -0.3 9.104015 13.965904 141.034866 0 0 0
32 2 1 0.2 9.055008 13.961662 139.495651 0 0 0
33 2 8 -0.3 10.079765 14.052883 138.349747 0 0 0
34 2 1 0.05 10.031975 14.048748 136.810471 0 0 0
35 2 1 0.05 8.864307 13.944977 135.811783 0 0 0
36 2 1 0.12 7.882263 13.857441 138.502975 0 0 0
37 2 1 -0.07 7.759155 13.846607 136.967941 0 0 0
38 2 7 -0.5 6.357748 13.721848 138.673477 0 0 0
39 2 5 0.14 6.098898 13.784908 139.751022 0 0 0
40 2 10 -0.38 6.229002 13.710518 137.076202 0 0 0
41 2 2 -0.05 11.56118 14.184753 136.689545 0 0 0
42 2 8 -0.3 12.265411 14.24749 135.321426 0 0 0
43 2 2 -0.05 11.227135 14.155235 134.18782 0 0 0
44 2 2 -0.17 12.236423 14.245083 133.028137 0 0 0
45 2 10 -0.38 11.032436 14.138081 132.073914 0 0 0
46 2 5 0.14 5.849546 14.540436 138.122345 0 0 0
47 2 6 0.35 5.930719 13.72776 138.145233 0 0 0
48 2 3 0.1 12.024506 13.319191 137.268951 0 0 0
49 2 3 0.1 11.898106 15.149162 137.195511 0 0 0
50 2 3 0.1 10.518696 15.048344 134.195847 0 0 0
51 2 3 0.1 10.659363 13.170254 134.271774 0 0 0
52 2 3 0.1 12.926178 13.339165 132.971954 0 0 0
53 2 3 0.1 12.806118 15.230221 133.095657 0 0 0
54 2 6 0.35 11.236666 14.723793 131.153412 0 0 0
55 2 3 0.1 9.155994 12.826141 139.495575 0 0 0
56 2 3 0.1 10.132957 12.913231 136.810394 0 0 0
57 2 3 0.1 8.965292 12.809464 135.811691 0 0 0
58 2 3 0.1 7.983248 12.721916 138.502884 0 0 0
59 2 3 0.1 7.658173 14.982124 136.968033 0 0 0
60 3 8 -0.3 8.822382 13.941368 134.302368 0 0 0
61 3 1 0.2 8.780491 13.937752 132.762939 0 0 0
62 3 8 -0.3 9.810534 14.029446 131.621811 0 0 0
63 3 1 0.05 9.769852 14.025944 130.082352 0 0 0
64 3 1 0.05 8.606812 13.922588 129.078232 0 0 0
65 3 1 0.12 7.612345 13.833946 131.764816 0 0 0
66 3 1 -0.07 7.496328 13.823738 130.229233 0 0 0
67 3 7 -0.5 6.087059 13.69828 131.928223 0 0 0
68 3 5 0.14 5.823692 13.756126 133.004974 0 0 0
69 3 10 -0.38 5.965698 13.687614 130.330353 0 0 0
70 3 2 -0.05 11.299603 14.161999 129.968536 0 0 0
71 3 8 -0.3 12.010149 14.225288 128.603714 0 0 0
72 3 2 -0.05 10.977119 14.133507 127.465286 0 0 0
73 3 2 -0.17 11.99176 14.223827 126.310318 0 0 0
74 3 10 -0.38 10.792183 14.117222 125.350494 0 0 0
75 3 5 0.14 5.581585 14.519852 131.379028 0 0 0
76 3 6 0.35 5.662916 13.699593 131.398209 0 0 0
77 3 3 0.1 11.76025 13.2962 130.549728 0 0 0
78 3 3 0.1 11.634186 15.126194 130.47644 0 0 0
79 3 3 0.1 10.268644 15.026619 127.470383 0 0 0
80 3 3 0.1 10.408966 13.148491 127.546204 0 0 0
81 3 3 0.1 12.681759 13.317932 126.256958 0 0 0
82 3 3 0.1 12.561125 15.208939 126.380875 0 0 0
83 3 6 0.35 10.999592 14.705433 124.432281 0 0 0
84 3 3 0.1 8.881475 12.802231 132.762863 0 0 0
85 3 3 0.1 9.668865 15.161465 130.082443 0 0 0
86 3 3 0.1 8.707798 12.787071 129.07814 0 0 0
87 3 3 0.1 7.511358 14.96946 131.764908 0 0 0
88 3 3 0.1 7.597315 12.688221 130.229141 0 0 0
89 4 8 -0.3 8.571861 13.919594 127.568649 0 0 0
90 4 1 0.2 8.537085 13.916615 126.029022 0 0 0
91 4 8 -0.3 9.572386 14.008774 124.8927 0 0 0
92 4 1 0.05 9.538816 14.005905 123.353058 0 0 0
93 4 1 0.05 8.380428 13.902962 122.343552 0 0 0
94 4 1 0.12 7.373562 13.813213 125.025467 0 0 0
95 4 1 -0.07 7.264639 13.803646 123.489365 0 0 0
96 4 7 -0.5 5.847536 13.67749 125.181778 0 0 0
97 4 5 0.14 5.579662 13.730114 126.25769 0 0 0
98 4 10 -0.38 5.733557 13.667473 123.583359 0 0 0
99 4 2 -0.05 11.069077 14.141998 123.246368 0 0 0
100 4 8 -0.3 11.785921 14.205856 121.884888 0 0 0
101 4 2 -0.05 10.758162 14.11454 120.741653 0 0 0
102 4 2 -0.17 11.778128 14.205334 119.591415 0 0 0
103 4 10 -0.38 10.583002 14.099125 118.626022 0 0 0
104 4 5 0.14 5.344765 14.502026 124.634537 0 0 0
105 4 6 0.35 5.426283 13.674198 124.649963 0 0 0
106 4 3 0.1 11.527033 13.275963 123.829346 0 0 0
107 4 3 0.1 11.401308 15.105991 123.756226 0 0 0
108 4 3 0.1 10.049671 15.007648 120.743866 0 0 0
109 4 3 0.1 10.189642 13.129494 120.81955 0 0 0
110 4 3 0.1 12.468369 13.299458 119.540878 0 0 0
111 4 3 0.1 12.34716 15.190414 119.665009 0 0 0
112 4 6 0.35 10.793571 14.689819 117.710129 0 0 0
113 4 3 0.1 8.436096 15.052132 126.029114 0 0 0
114 4 3 0.1 9.639803 12.870384 123.352982 0 0 0
115 4 3 0.1 8.481417 12.767441 122.34346 0 0 0
116 4 3 0.1 7.474546 12.677696 125.025391 0 0 0
117 4 3 0.1 7.163654 14.939163 123.489441 0 0 0
118 5 8 -0.3 8.352457 13.900589 120.833801 0 0 0
119 5 1 0.2 8.324791 13.898239 119.294052 0 0 0
120 5 8 -0.3 9.365332 13.990868 118.162552 0 0 0
121 5 1 0.05 9.338875 13.988628 116.622787 0 0 0
122 5 1 0.05 8.185165 13.886101 115.60788 0 0 0
123 5 1 0.12 7.165918 13.795258 118.285095 0 0 0
124 5 1 -0.07 7.064096 13.786316 116.748489 0 0 0
125 5 7 -0.5 5.639185 13.659466 118.434265 0 0 0
126 5 5 0.14 5.366802 13.706867 119.509293 0 0 0
127 5 10 -0.38 5.532595 13.650108 116.835358 0 0 0
128 5 2 -0.05 10.86961 14.124771 116.523224 0 0 0
129 5 8 -0.3 11.592739 14.189182 115.165085 0 0 0
130 5 2 -0.05 10.570272 14.098339 114.017075 0 0 0
131 5 2 -0.17 11.595543 14.189606 112.871613 0 0 0
132 5 10 -0.38 10.404888 14.083786 111.90065 0 0 0
133 5 5 0.14 5.139097 14.48695 117.889038 0 0 0
134 5 6 0.35 5.220837 13.651569 117.900665 0 0 0
135 5 3 0.1 11.324871 13.258495 117.107941 0 0 0
136 5 3 0.1 11.199482 15.088551 117.034988 0 0 0
137 5 3 0.1 9.86178 14.991444 114.016373 0 0 0
138 5 3 0.1 10.001398 13.113262 114.091934 0 0 0
139 5 3 0.1 12.286005 13.283749 112.823883 0 0 0
140 5 3 0.1 12.16423 15.174656 112.948212 0 0 0
141 5 6 0.35 10.618605 14.676941 110.987091 0 0 0
142 5 3 0.1 8.223804 15.03376 119.294128 0 0 0
143 5 3 0.1 9.439861 12.853111 116.622696 0 0 0
144 5 3 0.1 8.28615 12.750584 115.607788 0 0 0
145 5 3 0.1 7.06493 14.930775 118.285172 0 0 0
146 5 3 0.1 7.165079 12.650803 116.748398 0 0 0
147 6 8 -0.3 8.164169 13.884354 114.098022 0 0 0
148 6 1 0.2 8.143614 13.882637 112.558151 0 0 0
149 6 8 -0.3 9.189375 13.975723 111.431519 0 0 0
150 6 1 0.05 9.170033 13.974117 109.891647 0 0 0
151 6 1 0.05 8.021023 13.872009 108.871368 0 0 0
152 6 1 0.12 6.989416 13.780067 111.543808 0 0 0
153 6 1 -0.07 6.894697 13.771759 110.006744 0 0 0
154 6 7 -0.5 5.462011 13.644218 111.685883 0 0 0
155 6 5 0.14 5.18512 13.686386 112.759964 0 0 0
156 6 10 -0.38 5.362806 13.635517 110.086487 0 0 0
157 6 2 -0.05 10.70121 14.110302 109.79921 0 0 0
158 6 8 -0.3 11.430607 14.17527 108.444443 0 0 0
159 6 2 -0.05 10.413454 14.084896 107.291702 0 0 0
160 6 2 -0.17 11.444004 14.176636 106.151016 0 0 0
161 6 10 -0.38 10.257853 14.07122 105.17453 0 0 0
162 6 5 0.14 4.964579 14.474632 111.14267 0 0 0
163 6 6 0.35 5.046568 13.63171 111.150467 0 0 0
164 6 3 0.1 11.153763 13.243782 110.385681 0 0 0
165 6 3 0.1 11.028713 15.073868 110.312897 0 0 0
166 6 3 0.1 9.704971 14.978004 107.288086 0 0 0
167 6 3 0.1 9.844242 13.099792 107.363525 0 0 0
168 6 3 0.1 12.134686 13.270798 106.10611 0 0 0
169 6 3 0.1 12.012331 15.161652 106.230667 0 0 0
170 6 6 0.35 10.474707 14.666813 104.26329 0 0 0
171 6 3 0.1 8.2446 12.747124 112.558075 0 0 0
172 6 3 0.1 9.069048 15.109642 109.891724 0 0 0
173 6 3 0.1 8.122009 12.736496 108.871292 0 0 0
174 6 3 0.1 6.88843 14.915588 111.5439 0 0 0
175 6 3 0.1 6.793709 14.90728 110.006836 0 0 0
176 7 8 -0.3 8.007002 13.87088 107.361435 0 0 0
177 7 1 0.2 7.993561 13.869801 105.821503 0 0 0
178 7 8 -0.3 9.044516 13.963348 104.699738 0 0 0
179 7 1 0.05 9.032286 13.962379 103.15979 0 0 0
180 7 1 0.05 7.888006 13.860691 102.134171 0 0 0
181 7 1 0.12 6.844059 13.767654 104.801788 0 0 0
182 7 1 -0.07 6.756445 13.759975 103.264297 0 0 0
183 7 7 -0.5 5.316019 13.631744 104.936752 0 0 0
184 7 5 0.14 5.03462 13.668674 106.009842 0 0 0
185 7 10 -0.38 5.224205 13.623703 103.336899 0 0 0
186 7 2 -0.05 10.563879 14.098591 103.074478 0 0 0
187 7 8 -0.3 11.299522 14.16412 101.723129 0 0 0
188 7 2 -0.05 10.28771 14.074223 100.565659 0 0 0
189 7 2 -0.17 11.323517 14.166424 99.429787 0 0 0
190 7 10 -0.38 10.141888 14.061413 98.447784 0 0 0
191 7 5 0.14 4.821213 14.465065 104.395599 0 0 0
192 7 6 0.35 4.903486 13.614628 104.399521 0 0 0
193 7 3 0.1 11.013718 13.231834 103.662674 0 0 0
194 7 3 0.1 10.889004 15.061951 103.590073 0 0 0
195 7 3 0.1 9.579252 14.967331 100.559143 0 0 0
196 7 3 0.1 9.71817 13.089088 100.634445 0 0 0
197 7 3 0.1 12.014399 13.260601 99.387695 0 0 0
198 7 3 0.1 11.89147 15.151405 99.512466 0 0 0
199 7 6 0.35 10.361872 14.659424 97.538895 0 0 0
200 7 3 0.1 7.892576 15.005318 105.821579 0 0 0
201 7 3 0.1 8.931303 15.097897 103.159882 0 0 0
202 7 3 0.1 7.988991 12.725174 102.134094 0 0 0
203 7 3 0.1 6.743078 14.903168 104.801865 0 0 0
204 7 3 0.1 6.857428 12.624451 103.264206 0 0 0
205 8 8 -0.3 7.88096 13.86018 100.624191 0 0 0
206 8 1 0.2 7.874636 13.85973 99.084213 0 0 0
207 8 8 -0.3 8.930761 13.953743 97.967354 0 0 0
208 8 1 0.05 8.925648 13.953403 96.427361 0 0 0
209 8 1 0.05 7.786116 13.852139 95.396439 0 0 0
210 8 1 0.12 6.729856 13.757999 98.059151 0 0 0
211 8 1 -0.07 6.649343 13.750957 96.521271 0 0 0
212 8 7 -0.5 5.201208 13.622044 98.186996 0 0 0
213 8 5 0.14 4.915302 13.653728 99.259079 0 0 0
214 8 10 -0.38 5.116783 13.614658 96.586739 0 0 0
215 8 2 -0.05 10.457617 14.089653 96.34919 0 0 0
216 8 8 -0.3 11.199495 14.155727 95.001282 0 0 0
217 8 2 -0.05 10.193043 14.066311 93.839111 0 0 0
218 8 2 -0.17 11.234085 14.158978 92.708069 0 0 0
219 8 10 -0.38 10.057007 14.054371 91.720581 0 0 0
220 8 5 0.14 4.709007 14.458252 97.647934 0 0 0
221 8 6 0.35 4.791595 13.600319 97.647942 0 0 0
222 8 3 0.1 10.904734 13.222649 96.939102 0 0 0
223 8 3 0.1 10.780354 15.052792 96.866684 0 0 0
224 8 3 0.1 9.484619 14.959423 93.829681 0 0 0
225 8 3 0.1 9.623194 13.081146 93.904861 0 0 0
226 8 3 0.1 11.925156 13.253174 92.668793 0 0 0
227 8 3 0.1 11.801653 15.143925 92.793777 0 0 0
228 8 6 0.35 10.280106 14.654781 90.814026 0 0 0
229 8 3 0.1 7.773647 14.995251 99.08429 0 0 0
230 8 3 0.1 8.824661 15.088921 96.427444 0 0 0
231 8 3 0.1 7.887102 12.716621 95.396347 0 0 0
232 8 3 0.1 6.628872 14.89352 98.059235 0 0 0
233 8 3 0.1 6.75033 12.615437 96.521194 0 0 0
234 9 8 -0.3 7.786045 13.852245 93.886436 0 0 0
235 9 1 0.2 7.786835 13.852432 92.346436 0 0 0
236 9 8 -0.3 8.848112 13.946896 91.234512 0 0 0
237 9 1 0.05 8.850113 13.947189 89.694519 0 0 0
238 9 1 0.05 7.715355 13.846352 88.658295 0 0 0
239 9 1 0.12 6.646809 13.751122 91.316055 0 0 0
240 9 1 -0.07 6.5734 13.744713 89.777832 0 0 0
241 9 7 -0.5 5.117584 13.615116 91.436783 0 0 0
242 9 5 0.14 4.827178 13.641552 92.507797 0 0 0
243 9 10 -0.38 5.040555 13.608383 89.836151 0 0 0
244 9 2 -0.05 10.382427 14.083469 89.623474 0 0 0
245 9 8 -0.3 11.130524 14.150101 88.279037 0 0 0
246 9 2 -0.05 10.12945 14.061165 87.112183 0 0 0
247 9 2 -0.17 11.175709 14.154293 85.986008 0 0 0
248 9 10 -0.38 10.003206 14.050091 84.99305 0 0 0
249 9 5 0.14 4.627959 14.454197 90.899841 0 0 0
250 9 6 0.35 4.710898 13.588779 90.895889 0 0 0
251 9 3 0.1 10.826815 13.216228 90.215088 0 0 0
252 9 3 0.1 10.702772 15.046402 90.142838 0 0 0
253 9 3 0.1 9.42108 14.954281 87.099861 0 0 0
254 9 3 0.1 9.559305 13.075974 87.174911 0 0 0
255 9 3 0.1 11.866951 13.248501 85.94957 0 0 0
256 9 3 0.1 11.742874 15.139206 86.074745 0 0 0
257 9 6 0.35 10.22941 14.652882 84.088852 0 0 0
258 9 3 0.1 7.887823 12.716911 92.346344 0 0 0
259 9 3 0.1 8.74913 15.08271 89.694595 0 0 0
260 9 3 0.1 7.816343 12.710838 88.658203 0 0 0
261 9 3 0.1 6.747793 12.615604 91.315979 0 0 0
262 9 3 0.1 6.472414 14.88023 89.777908 0 0 0
263 10 8 -0.3 7.722265 13.847084 87.148308 0 0 0
264 10 1 0.2 7.730171 13.8479 85.608322 0 0 0
265 10 8 -0.3 8.79657 13.942822 84.501358 0 0 0
266 10 1 0.05 8.805687 13.943745 82.961388 0 0 0
267 10 1 0.05 7.675728 13.843334 81.919891 0 0 0
268 10 1 0.12 6.594913 13.747017 84.572655 0 0 0
269 10 1 -0.07 6.528612 13.741234 83.034088 0 0 0
270 10 7 -0.5 5.065147 13.610958 84.686256 0 0 0
271 10 5 0.14 4.770239 13.632149 85.756149 0 0 0
272 10 10 -0.38 4.995514 13.604885 83.085281 0 0 0
273 10 2 -0.05 10.338312 14.080055 82.897484 0 0 0
274 10 8 -0.3 11.092613 14.147236 81.556549 0 0 0
275 10 2 -0.05 10.096941 14.058777 80.38504 0 0 0
276 10 2 -0.17 11.148392 14.152367 79.263756 0 0 0
277 10 10 -0.38 9.98049 14.04858 78.265335 0 0 0
278 10 5 0.14 4.578075 14.452896 84.151459 0 0 0
279 10 6 0.35 4.661396 13.580009 84.143509 0 0 0
280 10 3 0.1 10.779961 13.212566 83.490784 0 0 0
281 10 3 0.1 10.656252 15.04277 83.418716 0 0 0
282 10 3 0.1 9.388636 14.9519 80.369812 0 0 0
283 10 3 0.1 9.526512 13.073563 80.444725 0 0 0
284 10 3 0.1 11.839798 13.246597 79.230125 0 0 0
285 10 3 0.1 11.715137 15.137245 79.355515 0 0 0
286 10 6 0.35 10.209787 14.653728 77.363503 0 0 0
287 10 3 0.1 7.831154 12.712379 85.608246 0 0 0
288 10 3 0.1 8.906672 12.808231 82.961304 0 0 0
289 10 3 0.1 7.776714 12.707817 81.919807 0 0 0
290 10 3 0.1 6.493928 14.882538 84.572739 0 0 0
291 10 3 0.1 6.629599 12.605717 83.034012 0 0 0
292 11 8 -0.3 7.68961 13.844685 80.409958 0 0 0
293 11 1 0.2 7.704632 13.846134 78.870026 0 0 0
294 11 8 -0.3 8.776136 13.941509 77.768036 0 0 0
295 11 1 0.05 8.792366 13.943069 76.228127 0 0 0
296 11 1 0.05 7.667233 13.843086 75.181381 0 0 0
297 11 1 0.12 6.574174 13.745682 77.829086 0 0 0
298 11 1 -0.07 6.514982 13.740528 76.290222 0 0 0
299 11 7 -0.5 5.0439 13.609577 77.935562 0 0 0
300 11 5 0.14 4.744494 13.625507 79.004303 0 0 0
301 11 10 -0.38 4.981666 13.604164 76.334274 0 0 0
302 11 2 -0.05 10.325272 14.079399 76.171356 0 0 0
303 11 8 -0.3 11.085762 14.147133 74.833954 0 0 0
304 11 2 -0.05 10.095512 14.059155 73.657822 0 0 0
305 11 2 -0.17 11.152132 14.15321 72.541443 0 0 0
306 11 10 -0.38 9.988853 14.049831 71.537598 0 0 0
307 11 5 0.14 4.559356 14.454346 77.402939 0 0 0
308 11 6 0.35 4.64309 13.574017 77.390945 0 0 0
309 11 3 0.1 10.764177 13.21167 76.766342 0 0 0
310 11 3 0.1 10.640799 15.041901 76.694458 0 0 0
311 11 3 0.1 9.38728 14.952286 73.639694 0 0 0
312 11 3 0.1 9.524815 13.073917 73.714462 0 0 0
313 11 3 0.1 11.843685 13.247448 72.510635 0 0 0
314 11 3 0.1 11.718445 15.138046 72.636215 0 0 0
315 11 6 0.35 10.221237 14.657322 70.63813 0 0 0
316 11 3 0.1 7.805618 12.710617 78.869949 0 0 0
317 11 3 0.1 8.691383 15.078587 76.22821 0 0 0
318 11 3 0.1 7.768218 12.707569 75.18129 0 0 0
319 11 3 0.1 6.473189 14.881199 77.829163 0 0 0
320 11 3 0.1 6.615968 12.605011 76.290146 0 0 0
321 12 8 -0.3 7.688094 13.845055 73.671524 0 0 0
322 12 1 0.2 7.71023 13.847141 72.131683 0 0 0
323 12 8 -0.3 8.786814 13.94297 71.034698 0 0 0
324 12 1 0.05 8.810158 13.945156 69.494873 0 0 0
325 12 1 0.05 7.689873 13.845608 68.442902 0 0 0
326 12 1 0.12 6.584592 13.747116 71.08548 0 0 0
327 12 1 -0.07 6.532512 13.742599 69.546371 0 0 0
328 12 7 -0.5 5.053842 13.61097 71.18483 0 0 0
329 12 5 0.14 4.749943 13.621643 72.252365 0 0 0
330 12 10 -0.38 4.999003 13.606216 69.583282 0 0 0
331 12 2 -0.05 10.343307 14.081512 69.445251 0 0 0
332 12 8 -0.3 11.109966 14.149792 68.111389 0 0 0
333 12 2 -0.05 10.125164 14.062302 66.930672 0 0 0
334 12 2 -0.17 11.18693 14.156811 65.819221 0 0 0
335 12 10 -0.38 10.028301 14.053844 64.809975 0 0 0
336 12 5 0.14 4.571798 14.458549 70.654419 0 0 0
337 12 6 0.35 4.605149 13.576103 68.545944 0 0 0
338 12 3 0.1 10.779459 13.213531 70.041893 0 0 0
339 12 3 0.1 10.656416 15.043797 69.970192 0 0 0
340 12 3 0.1 9.417023 14.955437 66.90963 0 0 0
341 12 3 0.1 9.554211 13.077042 66.984268 0 0 0
342 12 3 0.1 11.87862 13.25106 65.791237 0 0 0
343 12 3 0.1 11.7528 15.141605 65.917015 0 0 0
344 12 6 0.35 10.26376 14.663654 63.912872 0 0 0
345 12 3 0.1 7.609242 14.982658 72.131775 0 0 0
346 12 3 0.1 8.91114 12.809639 69.494789 0 0 0
347 12 3 0.1 7.790859 12.710091 68.44281 0 0 0
348 12 3 0.1 6.685576 12.611599 71.085403 0 0 0
349 12 3 0.1 6.431525 14.878113 69.546455 0 0 0
350 13 8 -0.3 7.717707 13.848194 66.933159 0 0 0
351 13 1 0.2 7.746957 13.850914 65.393433 0 0 0
352 13 8 -0.3 8.828596 13.947189 64.301476 0 0 0
353 13 1 0.05 8.859058 13.950016 62.76178 0 0 0
354 13 1 0.05 7.743643 13.850899 61.704597 0 0 0
355 13 1 0.12 6.626164 13.75132 64.34201 0 0 0
356 13 1 -0.07 6.581196 13.747437 62.80267 0 0 0
357 13 7 -0.5 5.094973 13.615139 64.434227 0 0 0
358 13 5 0.14 4.786584 13.620548 65.500519 0 0 0
359 13 10 -0.38 5.047535 13.611038 62.832436 0 0 0
360 13 2 -0.05 10.392418 14.086384 62.719292 0 0 0
361 13 8 -0.3 11.165234 14.155212 61.389023 0 0 0
362 13 2 -0.05 10.185894 14.068207 60.203724 0 0 0
363 13 2 -0.17 11.252785 14.163174 59.097233 0 0 0
364 13 10 -0.38 10.098831 14.060623 58.082603 0 0 0
365 13 5 0.14 4.615402 14.465511 63.906044 0 0 0
366 13 6 0.35 4.658049 13.586182 61.793312 0 0 0
367 13 3 0.1 10.825809 13.218163 63.317589 0 0 0
368 13 3 0.1 10.703098 15.048454 63.246075 0 0 0
369 13 3 0.1 9.477859 14.961353 60.179779 0 0 0
370 13 3 0.1 9.6147 13.082928 60.25428 0 0 0
371 13 3 0.1 11.944595 13.257435 59.072075 0 0 0
372 13 3 0.1 11.818197 15.14793 59.198048 0 0 0
373 13 6 0.35 10.337353 14.672737 57.187878 0 0 0
374 13 3 0.1 7.847941 12.715393 65.393356 0 0 0
375 13 3 0.1 8.758072 15.085533 62.761864 0 0 0
376 13 3 0.1 7.84463 12.715378 61.704514 0 0 0
377 13 3 0.1 6.525181 14.886837 64.342094 0 0 0
378 13 3 0.1 6.68218 12.611916 62.802582 0 0 0
379 14 8 -0.3 7.778452 13.854107 60.195004 0 0 0
380 14 1 0.2 7.814815 13.85746 58.655434 0 0 0
381 14 8 -0.3 8.901489 13.954182 57.56852 0 0 0
382 14 1 0.05 8.939064 13.957638 56.028984 0 0 0
383 14 1 0.05 7.828545 13.858959 54.966621 0 0 0
384 14 1 0.12 6.698894 13.758293 57.598797 0 0 0
385 14 1 -0.07 6.661036 13.755043 56.059265 0 0 0
386 14 7 -0.5 5.167291 13.622078 57.683887 0 0 0
387 14 5 0.14 4.854418 13.622227 58.748878 0 0 0
388 14 10 -0.38 5.127256 13.618641 56.08189 0 0 0
389 14 2 -0.05 10.472603 14.094025 55.993637 0 0 0
390 14 8 -0.3 11.251556 14.163395 54.666977 0 0 0
391 14 2 -0.05 10.277704 14.076881 53.477135 0 0 0
392 14 2 -0.17 11.349695 14.172298 52.375622 0 0 0
393 14 10 -0.38 10.200443 14.070168 51.355629 0 0 0
394 14 5 0.14 4.690168 14.475224 57.157963 0 0 0
395 14 6 0.35 4.742144 13.599045 55.041023 0 0 0
396 14 3 0.1 10.903225 13.225552 56.593575 0 0 0
397 14 3 0.1 10.780844 15.055874 56.522243 0 0 0
398 14 3 0.1 9.56979 14.970039 53.450287 0 0 0
399 14 3 0.1 9.706284 13.091579 53.524643 0 0 0
400 14 3 0.1 12.041616 13.266571 52.353287 0 0 0
401 14 3 0.1 11.914635 15.157013 52.479454 0 0 0
402 14 6 0.35 10.442017 14.684563 50.463295 0 0 0
403 14 3 0.1 7.915801 12.721939 58.65535 0 0 0
404 14 3 0.1 8.838078 15.093155 56.029068 0 0 0
405 14 3 0.1 7.929532 12.723438 54.966534 0 0 0
406 14 3 0.1 6.597908 14.89381 57.598885 0 0 0
407 14 3 0.1 6.560052 14.89056 56.059349 0 0 0
408 15 8 -0.3 7.870329 13.862785 53.457203 0 0 0
409 15 1 0.2 7.913805 13.866772 51.917824 0 0 0
410 15 8 -0.3 9.005487 13.963936 50.835979 0 0 0
411 15 1 0.05 9.050173 13.968029 49.296631 0 0 0
412 15 1 0.05 7.944576 13.869781 48.229111 0 0 0
413 15 1 0.12 6.802776 13.768044 50.855999 0 0 0
414 15 1 -0.07 6.772032 13.765427 49.316307 0 0 0
415 15 7 -0.5 5.270798 13.63179 50.933956 0 0 0
416 15 5 0.14 4.953442 13.626675 51.997608 0 0 0
417 15 10 -0.38 5.238163 13.629013 49.331791 0 0 0
418 15 2 -0.05 10.583862 14.104424 49.268429 0 0 0
419 15 8 -0.3 11.368935 14.174343 47.945412 0 0 0
420 15 2 -0.05 10.400591 14.088314 46.751045 0 0 0
421 15 2 -0.17 11.477659 14.184185 45.654537 0 0 0
422 15 10 -0.38 10.333132 14.082478 44.629204 0 0 0
423 15 5 0.14 4.796094 14.48769 50.410316 0 0 0
424 15 6 0.35 4.857436 13.614677 48.289227 0 0 0
425 15 3 0.1 11.011707 13.235706 49.869991 0 0 0
426 15 3 0.1 10.889656 15.066059 49.798851 0 0 0
427 15 3 0.1 9.692806 14.981487 46.721291 0 0 0
428 15 3 0.1 9.828957 13.102997 46.795509 0 0 0
429 15 3 0.1 12.169678 13.278461 45.635029 0 0 0
430 15 3 0.1 12.042114 15.168858 45.761383 0 0 0
431 15 6 0.35 10.577747 14.699135 43.739262 0 0 0
432 15 3 0.1 8.01479 12.731251 51.917736 0 0 0
433 15 3 0.1 9.151157 12.832508 49.296547 0 0 0
434 15 3 0.1 8.045563 12.734268 48.229027 0 0 0
435 15 3 0.1 6.903761 12.632526 50.855911 0 0 0
436 15 3 0.1 6.671047 14.900944 49.316391 0 0 0
437 16 8 -0.3 7.993333 13.874229 46.719902 0 0 0
438 16 1 0.2 8.043921 13.878845 45.18074 0 0 0
439 16 8 -0.3 9.140591 13.976463 44.103996 0 0 0
440 16 1 0.05 9.192387 13.981178 42.564873 0 0 0
441 16 1 0.05 8.091736 13.883377 41.492214 0 0 0
442 16 1 0.12 6.937811 13.780556 44.113754 0 0 0
443 16 1 -0.07 6.91418 13.778572 42.57394 0 0 0
444 16 7 -0.5 5.405488 13.644279 44.184578 0 0 0
445 16 5 0.14 5.083655 13.633892 45.246849 0 0 0
446 16 10 -0.38 5.380257 13.642155 42.582279 0 0 0
447 16 2 -0.05 10.726189 14.117588 42.543812 0 0 0
448 16 8 -0.3 11.517366 14.188046 41.224464 0 0 0
449 16 2 -0.05 10.554554 14.102516 40.025604 0 0 0
450 16 2 -0.17 11.636675 14.198833 38.93412 0 0 0
451 16 10 -0.38 10.496895 14.097546 37.903469 0 0 0
452 16 5 0.14 4.933176 14.502907 43.663254 0 0 0
453 16 6 0.35 5.003921 13.63308 41.538063 0 0 0
454 16 3 0.1 11.151253 13.248627 43.146988 0 0 0
455 16 3 0.1 11.029531 15.079006 43.076035 0 0 0
456 16 3 0.1 9.846909 14.995697 39.992947 0 0 0
457 16 3 0.1 9.982719 13.117176 40.06702 0 0 0
458 16 3 0.1 12.328775 13.293121 38.917439 0 0 0
459 16 3 0.1 12.200628 15.18346 39.043976 0 0 0
460 16 6 0.35 10.744543 14.716446 37.015926 0 0 0
461 16 3 0.1 8.144905 12.743328 45.180656 0 0 0
462 16 3 0.1 9.293373 12.845665 42.564789 0 0 0
463 16 3 0.1 8.19272 12.74786 41.492126 0 0 0
464 16 3 0.1 6.836824 14.91608 44.113842 0 0 0
465 16 3 0.1 7.015165 12.643055 42.573853 0 0 0
466 17 8 -0.3 8.147463 13.888447 39.98325 0 0 0
467 17 1 0.2 8.205162 13.893696 38.44434 0 0 0
468 17 8 -0.3 9.306795 13.991749 37.372711 0 0 0
469 17 1 0.05 9.365704 13.997101 35.833847 0 0 0
470 17 1 0.05 8.270018 13.899742 34.756073 0 0 0
471 17 1 0.12 7.103992 13.795845 37.372215 0 0 0
472 17 1 -0.07 7.087477 13.794491 35.832306 0 0 0
473 17 7 -0.5 5.57136 13.659538 37.435902 0 0 0
474 17 5 0.14 5.245054 13.643887 38.496742 0 0 0
475 17 10 -0.38 5.553533 13.658073 35.8335 0 0 0
476 17 2 -0.05 10.899586 14.133514 35.819927 0 0 0
477 17 8 -0.3 11.69685 14.204517 34.50428 0 0 0
478 17 2 -0.05 10.739584 14.119476 33.300949 0 0 0
479 17 2 -0.17 11.826738 14.21624 32.214516 0 0 0
480 17 10 -0.38 10.691732 14.115379 31.178568 0 0 0
481 17 5 0.14 5.101412 14.520874 36.916912 0 0 0
482 17 6 0.35 5.181595 13.654259 34.787678 0 0 0
483 17 3 0.1 11.321857 13.264301 36.424706 0 0 0
484 17 3 0.1 11.200462 15.094715 36.353943 0 0 0
485 17 3 0.1 10.032101 15.012672 33.265388 0 0 0
486 17 3 0.1 10.167564 13.134125 33.339317 0 0 0
487 17 3 0.1 12.518908 13.310532 32.200661 0 0 0
488 17 3 0.1 12.390177 15.200821 32.327381 0 0 0
489 17 6 0.35 10.942402 14.736511 30.29343 0 0 0
490 17 3 0.1 8.104176 15.029213 38.444427 0 0 0
491 17 3 0.1 9.264715 15.132622 35.833935 0 0 0
492 17 3 0.1 8.371002 12.764221 34.755989 0 0 0
493 17 3 0.1 7.204976 12.660328 37.372131 0 0 0
494 17 3 0.1 7.188463 12.658978 35.832218 0 0 0
495 18 8 -0.3 8.332718 13.905434 33.247387 0 0 0
496 18 1 0.2 8.397522 13.911308 31.708763 0 0 0
497 18 8 -0.3 9.504095 14.009804 30.642275 0 0 0
498 18 1 0.05 9.570112 14.015785 29.103703 0 0 0
499 18 1 0.05 8.47942 13.918873 28.02084 0 0 0
500 18 1 0.12 7.301319 13.8139 30.631519 0 0 0
501 18 1 -0.07 7.291919 13.813179 29.091551 0 0 0
502 18 7 -0.5 5.768409 13.67757 30.68807 0 0 0
503 18 5 0.14 5.437638 13.656651 31.747433 0 0 0
504 18 10 -0.38 5.757984 13.676765 29.085606 0 0 0
505 18 2 -0.05 11.104044 14.15221 29.096928 0 0 0
506 18 8 -0.3 11.907377 14.223747 27.785006 0 0 0
507 18 2 -0.05 10.955681 14.139202 26.577229 0 0 0
508 18 2 -0.17 12.047842 14.236412 25.495872 0 0 0
509 18 10 -0.38 10.917637 14.135979 24.454649 0 0 0
510 18 5 0.14 5.300797 14.541592 30.171444 0 0 0
511 18 6 0.35 5.390453 13.678207 28.038216 0 0 0
512 18 3 0.1 11.523518 13.282745 29.703291 0 0 0
513 18 3 0.1 11.402451 15.113186 29.632717 0 0 0
514 18 3 0.1 10.248369 15.032417 26.538767 0 0 0
515 18 3 0.1 10.383493 13.153831 26.612549 0 0 0
516 18 3 0.1 12.74007 13.330708 25.48484 0 0 0
517 18 3 0.1 12.610756 15.220947 25.611744 0 0 0
518 18 6 0.35 11.171316 14.759308 23.571924 0 0 0
519 18 3 0.1 8.498508 12.775791 31.708677 0 0 0
520 18 3 0.1 9.671097 12.880268 29.103619 0 0 0
521 18 3 0.1 8.580404 12.783356 28.020756 0 0 0
522 18 3 0.1 7.200335 14.949421 30.631607 0 0 0
523 18 3 0.1 7.392904 12.677666 29.091465 0 0 0
524 19 8 -0.3 8.549088 13.925179 26.512461 0 0 0
525 19 1 0.2 8.621002 13.93169 24.974155 0 0 0
526 19 8 -0.3 9.732491 14.030621 23.91283 0 0 0
527 19 1 0.05 9.805614 14.037235 22.374582 0 0 0
528 19 1 0.05 8.719936 13.940765 21.28665 0 0 0
529 19 1 0.12 7.529788 13.834732 23.891819 0 0 0
530 19 1 -0.07 7.527502 13.834641 22.35182 0 0 0
531 19 7 -0.5 5.996632 13.698376 23.941231 0 0 0
532 19 5 0.14 5.661402 13.672184 24.999073 0 0 0
533 19 10 -0.38 5.99361 13.698227 22.338734 0 0 0
534 19 2 -0.05 11.339561 14.173656 22.374949 0 0 0
535 19 8 -0.3 12.148949 14.245739 21.066782 0 0 0
536 19 2 -0.05 11.202843 14.16169 19.854588 0 0 0
537 19 2 -0.17 12.299988 14.259338 18.778328 0 0 0
538 19 10 -0.38 11.174604 14.159336 17.73185 0 0 0
539 19 5 0.14 5.53133 14.565067 23.426991 0 0 0
540 19 6 0.35 5.630493 13.704922 21.289825 0 0 0
541 19 3 0.1 11.756229 13.303947 22.982887 0 0 0
542 19 3 0.1 11.63549 15.134418 22.91251 0 0 0
543 19 3 0.1 10.495714 15.054916 19.813225 0 0 0
544 19 3 0.1 10.630497 13.176304 19.88686 0 0 0
545 19 3 0.1 12.99226 13.353642 18.770123 0 0 0
546 19 3 0.1 12.862358 15.243828 18.897202 0 0 0
547 19 6 0.35 11.431284 14.784859 16.851547 0 0 0
548 19 3 0.1 8.520016 15.067207 24.974239 0 0 0
549 19 3 0.1 9.70463 15.17276 22.374666 0 0 0
550 19 3 0.1 8.820921 12.805248 21.286564 0 0 0
551 19 3 0.1 7.630774 12.699207 23.891733 0 0 0
552 19 3 0.1 7.628488 12.699123 22.351736 0 0 0
553 20 8 -0.3 8.796574 13.947701 19.77861 0 0 0
554 20 1 0.2 8.875595 13.954842 18.240658 0 0 0
555 20 8 -0.3 9.991974 14.054203 17.184523 0 0 0
556 20 1 0.05 10.072205 14.061455 15.646629 0 0 0
557 20 2 -0.2 8.991566 13.965435 14.553652 0 0 0
558 20 1 0.12 7.789392 13.858322 17.153255 0 0 0
559 20 1 -0.07 7.794221 13.858868 15.613262 0 0 0
560 20 7 -0.5 6.256025 13.721954 17.195522 0 0 0
561 20 5 0.14 5.858896 13.687885 16.159554 0 0 0
562 20 10 -0.38 6.260407 13.722462 15.593031 0 0 0
563 20 2 -0.05 11.606133 14.197868 15.654137 0 0 0
564 20 8 -0.3 12.421555 14.270485 14.349758 0 0 0
565 20 2 -0.05 11.48106 14.186939 13.133167 0 0 0
566 20 2 -0.17 12.583166 14.28503 12.062027 0 0 0
567 20 10 -0.38 11.462627 14.185455 11.010323 0 0 0
568 20 5 0.14 5.982236 12.78709 17.727661 0 0 0
569 20 6 0.35 5.901708 13.734409 14.542652 0 0 0
570 20 3 0.1 12.019989 13.327908 16.263641 0 0 0
571 20 3 0.1 11.899574 15.158409 16.193455 0 0 0
572 20 3 0.1 10.77413 15.080185 13.088909 0 0 0
573 20 3 0.1 10.908571 13.201546 13.16239 0 0 0
574 20 3 0.1 13.275467 13.379333 12.056652 0 0 0
575 20 3 0.1 13.144979 15.269466 12.183908 0 0 0