LAMMPS data file via write_data, version 29 Oct 2020, timestep = 0

7722 atoms
10 atom types
5361 bonds
13 bond types
3500 angles
31 angle types
1677 dihedrals
51 dihedral types
20 impropers
1 improper types

0.505368713 20.505368713 xlo xhi
0.820907852 30.820907852 ylo yhi
-0.569175778 161.962724222 zlo zhi

Masses

1 1.00797
2 15.9994
3 12.01115
4 15.9994
5 14.0067
6 1.00797
7 12.01115
8 1.00797
9 15.9994
10 1.00797

Pair Coeffs # lj/cut/coul/long

1 0.038 2.44997
2 0.228 2.85978
3 0.039 3.87541
4 0.228 2.85978
5 0.167 3.50123
6 0.038 2.44997
7 0.039 3.87541
8 0.038 2.44997
9 0.155416 3.16552
10 0.038 2.44997

Bond Coeffs # harmonic

1 540.634 0.96
2 384 1.42
3 273.2 1.425
4 322.716 1.526
5 340.618 1.105
6 322.716 1.526
7 356.599 1.47
8 457.459 1.026
9 273.2 1.425
10 340.618 1.105
11 322.716 1.526
12 384 1.42
13 540.634 0.96

Angle Coeffs # harmonic

1 58.5 106
2 70 109.5
3 70 109.5
4 57 109.5
5 70 109.5
6 44.4 110
7 57 109.5
8 60 109.5
9 46.6 110.5
10 70 109.5
11 44.4 110
12 46.6 110.5
13 50 109.5
14 57.3 109.5
15 41.6 110
16 36 105.5
17 70 109.5
18 44.4 110
19 57 109.5
20 39.5 106.4
21 60 109.5
22 70 109.5
23 44.4 110
24 70 109.5
25 57 109.5
26 58.5 106
27 70 109.5
28 46.6 110.5
29 46.6 110.5
30 70 109.5
31 50 104.5

Dihedral Coeffs # harmonic

1 0.13 1 3
2 0.13 1 3
3 0.13 1 3
4 0.13 1 3
5 0.13 1 3
6 0.13 1 3
7 0.1581 1 3
8 0.1581 1 3
9 0.1581 1 3
10 0.1581 1 3
11 0.1581 1 3
12 0.1581 1 3
13 0.1581 1 3
14 0.1581 1 3
15 0.1581 1 3
16 0.13 1 3
17 0.1581 1 3
18 0.1581 1 3
19 0.1581 1 3
20 0.1581 1 3
21 0.1581 1 3
22 0.1581 1 3
23 0.1581 1 3
24 0.1581 1 3
25 0.1581 1 3
26 0.1581 1 3
27 0.1581 1 3
28 0.1581 1 3
29 0.1581 1 3
30 0.1333 1 3
31 0.1333 1 3
32 0.13 1 3
33 0.13 1 3
34 0.13 1 3
35 0.1581 1 3
36 0.1581 1 3
37 0.1581 1 3
38 0.1581 1 3
39 0.13 1 3
40 0.13 1 3
41 0.13 1 3
42 0.1581 1 3
43 0.1581 1 3
44 0.1581 1 3
45 0.1581 1 3
46 0.1581 1 3
47 0.1581 1 3
48 0.1581 1 3
49 0.1581 1 3
50 0.1581 1 3
51 0.13 1 3

Improper Coeffs # cvff

1 0 1 0

Atoms # full

1 1 1 0.35 18.666595079 2.050137865 65.783979163 1 3 0
2 1 2 -0.38 18.124683001 1.685064394 66.681282167 1 3 0
3 1 3 0.08 17.606240098 30.258203257 66.422662496 1 2 0
4 1 4 -0.3 18.174318581 28.960641819 65.818327316 1 2 0
5 1 3 0.05 17.656951583 27.533476624 65.559231237 1 2 0
6 1 3 0.05 16.29943064 26.859507447 65.832182309 1 2 0
7 1 3 0.12 16.246007102 29.590980716 66.698669978 1 2 0
8 1 3 -0.07 15.66223498 28.184453797 66.469558615 1 2 0
9 1 5 -0.5 14.928027769 30.088230037 67.320982935 1 2 0
10 1 6 0.14 15.00498961 1.175492386 67.530834028 1 3 0
11 1 2 -0.38 14.320004468 28.624810658 67.082830916 1 2 0
12 1 7 -0.05 18.994423855 27.081477376 64.944036256 1 2 0
13 1 4 -0.3 19.205871603 25.647443917 64.423999855 1 2 0
14 1 7 -0.05 17.923088901 24.818768774 64.622408766 1 2 0
15 1 7 -0.17 18.473021133 23.511788492 64.021595036 1 2 0
16 1 2 -0.38 17.096545706 22.887408733 64.316663543 1 2 0
17 1 6 0.14 14.092743314 29.906271349 66.612963912 1 2 0
18 1 1 0.35 14.369142453 29.70204528 67.345986855 1 2 0
19 1 8 0.1 19.807712683 27.28431643 65.716705368 1 2 0
20 1 8 0.1 19.228395847 27.722262656 64.03066268 1 2 0
21 1 8 0.1 17.058608388 25.231820313 64.004620919 1 2 0
22 1 8 0.1 17.663400472 24.780190078 65.73176604 1 2 0
23 1 8 0.1 19.308535239 23.054998975 64.648380064 1 2 0
24 1 8 0.1 18.7811129 23.691423043 62.938815812 1 2 0
25 1 1 0.35 16.861062424 22.127943256 63.542157355 1 2 0
26 1 8 0.1 17.240084928 30.57813233 65.391558362 1 2 0
27 1 8 0.1 17.290796413 27.853405698 64.528127103 1 2 0
28 1 8 0.1 16.665585811 26.539578373 66.863286443 1 2 0
29 1 8 0.1 15.879851932 29.91090979 65.667565844 1 2 0
30 1 8 0.1 15.296079809 28.50438287 65.438454481 1 2 0
31 2 4 -0.3 15.796539915 25.45891166 65.576189471 1 2 0
32 2 3 0.2 15.284425347 24.030276138 65.314771993 1 2 0
33 2 4 -0.3 15.858728046 22.736012252 64.709249691 1 2 0
34 2 3 0.05 15.347691267 21.307077899 64.447356759 1 2 0
35 2 3 0.05 13.992657127 20.627014125 64.717533722 1 2 0
36 2 3 0.12 13.9266469 23.356942997 65.588011855 1 2 0
37 2 3 -0.07 13.349080096 21.948323438 65.356047622 1 2 0
38 2 5 -0.5 12.605785564 23.847730535 66.209343289 1 2 0
39 2 6 0.14 12.679611203 24.934015249 66.425295401 1 2 0
40 2 2 -0.38 12.004218291 22.382130855 65.968222172 1 2 0
41 2 7 -0.05 16.687846229 20.861611122 63.833236011 1 2 0
42 2 4 -0.3 16.905984838 19.429254922 63.311344037 1 2 0
43 2 7 -0.05 15.626434205 18.594911448 63.50684645 1 2 0
44 2 7 -0.17 16.182625779 17.291147443 62.904807906 1 2 0
45 2 2 -0.38 14.808400526 16.660560084 63.197151271 1 2 0
46 2 6 0.14 11.77289359 23.667665505 65.498029318 1 2 0
47 2 1 0.35 12.050124853 23.458006766 66.237450016 1 2 0
48 2 8 0.1 17.499272667 21.066706142 64.607266453 1 2 0
49 2 8 0.1 16.920313149 21.504734638 62.921122405 1 2 0
50 2 8 0.1 14.761031006 19.00525504 62.88854604 1 2 0
51 2 8 0.1 15.365469573 18.553588175 64.615805333 1 2 0
52 2 8 0.1 17.019234703 16.836931384 63.532002641 1 2 0
53 2 8 0.1 16.491366859 17.473688525 61.822699937 1 2 0
54 2 1 0.35 14.575944143 15.903134001 62.419739038 1 2 0
55 2 8 0.1 15.650580518 23.710347065 66.345876127 1 2 0
56 2 8 0.1 15.713846438 20.987148825 65.478460893 1 2 0
57 2 8 0.1 14.358812297 20.307085051 65.748637856 1 2 0
58 2 8 0.1 14.292802071 23.037013923 66.619115989 1 2 0
59 2 8 0.1 12.982924925 22.268252511 64.324943488 1 2 0
60 3 4 -0.3 13.495980958 19.224705004 64.458802424 1 2 0
61 3 3 0.2 12.990205742 17.794325834 64.194592765 1 2 0
62 3 4 -0.3 13.570720301 16.503387344 63.587896368 1 2 0
63 3 3 0.05 13.066024735 15.072714577 63.323212217 1 2 0
64 3 3 0.05 11.713506549 14.386570838 63.59060926 1 2 0
65 3 3 0.12 11.634911056 17.11489658 64.465059128 1 2 0
66 3 3 -0.07 11.063561995 15.704214686 64.230247017 1 2 0
67 3 5 -0.5 10.311196135 17.599211775 65.085395672 1 2 0
68 3 6 0.14 10.381873941 18.684475629 65.307447548 1 2 0
69 3 2 -0.38 9.716097832 16.131463327 64.841310644 1 2 0
70 3 7 -0.05 14.408833553 14.633789855 62.710178916 1 2 0
71 3 4 -0.3 14.63365833 13.20314173 62.186442596 1 2 0
72 3 7 -0.05 13.357367294 12.363147876 62.379034305 1 2 0
73 3 7 -0.17 13.919806244 11.062628198 61.7757839 1 2 0
74 3 2 -0.38 12.54786073 10.425846806 62.065395835 1 2 0
75 3 6 0.14 9.480688858 17.42107238 64.370816047 1 2 0
76 3 1 0.35 9.758763091 17.205936697 65.116604438 1 2 0
77 3 8 0.1 15.218386385 14.841130974 63.485571609 1 2 0
78 3 8 0.1 14.639783967 15.27924339 61.799326789 1 2 0
79 3 8 0.1 12.491053447 12.770780442 61.760216103 1 2 0
80 3 8 0.1 13.095138507 12.319075295 63.487589052 1 2 0
81 3 8 0.1 14.757498644 10.610989551 62.403393598 1 2 0
82 3 8 0.1 14.229183563 11.248077503 60.694352355 1 2 0
83 3 1 0.35 12.318428215 9.670465034 61.285101582 1 2 0
84 3 8 0.1 13.356360913 17.474396761 65.225696899 1 2 0
85 3 8 0.1 12.699869564 15.39264365 62.292108083 1 2 0
86 3 8 0.1 12.07966172 14.066641764 64.621713394 1 2 0
87 3 8 0.1 11.268755885 17.434825653 63.433954994 1 2 0
88 3 8 0.1 11.429717165 15.384285612 65.261351151 1 2 0
89 4 4 -0.3 11.223055623 12.982578552 63.329145069 1 2 0
90 4 3 0.2 10.723630639 11.550486509 63.062148913 1 2 0
91 4 4 -0.3 11.310344568 10.262901189 62.454291474 1 2 0
92 4 3 0.05 10.812001072 8.830520787 62.1868218 1 2 0
93 4 3 0.05 9.46202794 8.138311846 62.451433169 1 2 0
94 4 3 0.12 9.370848872 10.864975759 63.329835958 1 2 0
95 4 3 -0.07 8.805729845 9.452261882 63.092181021 1 2 0
96 4 5 -0.5 8.044308846 11.342808193 63.949164265 1 2 0
97 4 6 0.14 8.111827371 12.427007858 64.177314122 1 2 0
98 4 2 -0.38 7.455692315 9.872942555 63.702120579 1 2 0
99 4 7 -0.05 12.157434856 8.398147563 61.574889133 1 2 0
100 4 4 -0.3 12.388940963 6.969238292 61.049319737 1 2 0
101 4 7 -0.05 11.115936983 6.123612132 61.238996597 1 2 0
102 4 7 -0.17 11.684611208 4.82636476 60.634547311 1 2 0
103 4 2 -0.38 10.314974949 4.183403036 60.921421585 1 2 0
104 4 6 0.14 7.21617812 11.166625961 63.231348591 1 2 0
105 4 1 0.35 7.495106613 10.945969528 63.983473827 1 2 0
106 4 8 0.1 12.965102906 8.607724867 62.35164497 1 2 0
107 4 8 0.1 12.386857365 9.04592285 60.66529997 1 2 0
108 4 8 0.1 10.248724546 6.528530652 60.619655385 1 2 0
109 4 8 0.1 10.852456114 6.076785571 62.347141471 1 2 0
110 4 8 0.1 12.523375719 4.377307425 61.262577216 1 2 0
111 4 8 0.1 11.994611677 5.014723918 59.553797343 1 2 0
112 4 1 0.35 10.088563268 3.430070379 60.138269186 1 2 0
113 4 8 0.1 10.357475468 11.870415583 62.031044779 1 2 0
114 4 8 0.1 11.178156242 8.510591714 63.217925934 1 2 0
115 4 8 0.1 9.828183111 7.818382772 63.482537303 1 2 0
116 4 8 0.1 9.737004043 10.545046685 64.360940092 1 2 0
117 4 8 0.1 8.439574675 9.772190956 62.061076887 1 2 0
118 5 4 -0.3 8.977812807 6.732666603 62.18724171 1 2 0
119 5 3 0.2 8.484748799 5.298892497 61.917464802 1 2 0
120 5 4 -0.3 9.077649475 4.014688049 61.308459399 1 2 0
121 5 3 0.05 8.58566877 2.58063083 61.038209956 1 2 0
122 5 3 0.05 7.238269736 1.88237158 61.300029959 1 2 0
123 5 3 0.12 7.134509056 4.607315001 62.182366771 1 2 0
124 5 3 -0.07 6.575632222 3.192599534 61.941874121 1 2 0
125 5 5 -0.5 5.805172465 5.078654395 62.800673517 1 2 0
126 5 6 0.14 5.86952045 6.161746448 63.034919034 1 2 0
127 5 2 -0.38 5.223050369 3.60670319 62.550676488 1 2 0
128 5 7 -0.05 9.933698573 2.154818404 60.42739109 1 2 0
129 5 4 -0.3 10.171881029 30.727678731 59.899999924 1 1 0
130 5 7 -0.05 8.902191492 29.876438457 60.086757857 1 1 0
131 5 7 -0.17 9.477088756 28.582491301 59.481122693 1 1 0
132 5 2 -0.38 8.109791221 27.933363078 59.765253134 1 1 0
133 5 6 0.14 4.979409782 4.9044604 62.079651698 1 2 0
134 5 1 0.35 5.25920427 4.67823989 62.838082153 1 2 0
135 5 8 0.1 10.739470706 2.366621931 61.205510934 1 2 0
136 5 8 0.1 10.161581809 2.804907127 59.519066346 1 2 0
137 5 8 0.1 8.034092542 30.278639971 59.466888426 1 1 0
138 5 8 0.1 8.637470643 29.826853305 61.194487129 1 1 0
139 5 8 0.1 10.31691399 28.136019122 60.109578042 1 1 0
140 5 8 0.1 9.787699274 28.773761879 58.401059441 1 1 0
141 5 1 0.35 7.886397332 27.182084228 58.979266314 1 1 0
142 5 8 0.1 8.118593628 5.618821571 60.886360667 1 2 0
143 5 8 0.1 8.95182394 2.260701756 62.06931409 1 2 0
144 5 8 0.1 7.604424906 1.562442506 62.331134094 1 2 0
145 5 8 0.1 6.768353885 4.927244075 61.151262637 1 2 0
146 5 8 0.1 6.941787392 2.872670461 62.972978255 1 2 0
147 6 4 -0.3 6.760300812 30.475103621 61.033116917 1 1 0
148 6 3 0.2 6.273608389 29.0396783 60.76056506 1 1 0
149 6 4 -0.3 6.872683054 27.758882352 60.150424797 1 1 0
150 6 3 0.05 6.387075724 26.323179169 59.877401399 1 1 0
151 6 3 0.05 5.042279776 25.618884633 60.136424404 1 1 0
152 6 3 0.12 4.925939718 28.342048937 61.022676255 1 1 0
153 6 3 -0.07 4.3733171 26.925362318 60.779351066 1 1 0
154 6 5 -0.5 3.593835163 28.80688515 61.639948137 1 1 0
155 6 6 0.14 3.655001542 29.888826084 61.880286461 1 1 0
156 6 2 -0.38 3.018220026 27.332880047 61.387003144 1 1 0
157 6 7 -0.05 7.737672545 25.903936702 59.267709475 1 1 0
158 6 4 -0.3 7.982526223 24.47859733 58.738507887 1 1 0
159 6 7 -0.05 6.716178447 23.621761258 58.922342874 1 1 0
160 6 7 -0.17 7.297286381 22.331142156 58.315534863 1 1 0
161 6 2 -0.38 5.932356984 21.675861401 58.596915358 1 1 0
162 6 6 0.14 2.770431655 28.634710005 60.915750372 1 1 0
163 6 1 0.35 3.051104321 28.402882592 61.680453648 1 1 0
164 6 8 0.1 8.541537666 26.117956442 60.04719416 1 1 0
165 6 8 0.1 7.964005172 26.556330495 58.36065058 1 1 0
166 6 8 0.1 5.847205079 24.021242864 58.301940029 1 1 0
167 6 8 0.1 6.450229744 23.569412961 60.029650825 1 1 0
168 6 8 0.1 8.138160927 21.88725892 58.944420884 1 1 0
169 6 8 0.1 7.608493832 22.525325659 57.236163451 1 1 0
170 6 1 0.35 5.711977846 20.926640939 57.808117693 1 1 0
171 6 8 0.1 6.639763559 28.719749226 61.791669195 1 1 0
172 6 8 0.1 6.020920553 26.643108243 58.846297265 1 1 0
173 6 8 0.1 5.408434947 25.29895556 61.167528538 1 1 0
174 6 8 0.1 4.559784547 28.661978011 59.991572121 1 1 0
175 6 8 0.1 4.007161929 27.245291392 59.748246932 1 1 0
176 7 4 -0.3 4.570567345 24.210024236 59.866795521 1 1 0
177 7 3 0.2 4.090256976 22.772978582 59.591474581 1 1 0
178 7 4 -0.3 4.695492741 21.495618689 58.980212584 1 1 0
179 7 3 0.05 4.216269233 20.058300432 58.704421106 1 1 0
180 7 3 0.05 2.874105304 19.347985764 58.96064154 1 1 0
181 7 3 0.12 2.745188372 22.069312363 59.850789362 1 1 0
182 7 3 -0.07 2.198831858 20.650685071 59.604636869 1 1 0
183 7 5 -0.5 1.410344513 22.527635395 60.4670131 1 1 0
184 7 6 0.14 1.468318416 23.608381626 60.71344084 1 1 0
185 7 2 -0.38 0.841248718 21.051608107 60.211125585 1 1 0
186 7 7 -0.05 5.569404013 19.645636943 58.09586924 1 1 0
187 7 4 -0.3 5.820923646 18.222128538 57.564868615 1 1 0
188 7 7 -0.05 4.557944875 17.359715102 57.745776702 1 1 0
189 7 7 -0.17 5.145250975 16.072451821 57.137808899 1 1 0
190 7 2 -0.38 3.782719083 15.411032633 57.416433395 1 1 0
191 7 6 0.14 0.589290955 22.357509243 59.739669874 1 1 0
192 7 1 0.35 0.870854429 22.120032614 60.510612808 1 1 0
193 7 8 0.1 6.371351069 19.861862838 58.876719571 1 1 0
194 7 8 0.1 5.79417473 20.300327388 57.190077596 1 1 0
195 7 8 0.1 3.688109204 17.756473954 57.124835258 1 1 0
196 7 8 0.1 4.290780473 17.304599167 58.852657622 1 1 0
197 7 8 0.1 5.9871634 15.631161262 57.76713081 1 1 0
198 7 8 0.1 5.457042233 16.269549691 56.059134436 1 1 0
199 7 1 0.35 3.56535165 14.663875036 56.624848311 1 1 0
200 7 8 0.1 3.724101805 23.092907656 58.560370447 1 1 0
201 7 8 0.1 3.850114062 20.378229506 57.673316972 1 1 0
202 7 8 0.1 3.240260474 19.02805669 59.991745674 1 1 0
203 7 8 0.1 2.379033202 22.389241436 58.819685227 1 1 0
204 7 8 0.1 2.564987029 20.330755997 60.635741003 1 1 0
205 8 4 -0.3 2.408659513 17.937563239 58.688302617 1 1 0
206 8 3 0.2 1.934741531 16.49892817 58.410218517 1 1 0
207 8 4 -0.3 2.546125374 15.225031814 57.797847937 1 1 0
208 8 3 0.05 2.073295998 13.786129405 57.519294312 1 1 0
209 8 3 0.05 0.733792963 13.069809888 57.772706663 1 1 0
210 8 3 0.12 0.592301933 15.789240234 58.666731305 1 1 0
211 8 3 -0.07 20.052223278 14.368702791 58.417756805 0 1 0
212 8 5 -0.5 19.254747488 16.241040225 59.281893642 0 1 0
213 8 6 0.14 19.309518248 17.320548101 59.53440687 0 1 0
214 8 2 -0.38 18.692183278 14.763022508 59.02306911 0 1 0
215 8 7 -0.05 3.428939625 13.380053773 56.911895598 1 1 0
216 8 4 -0.3 3.687119801 11.958406959 56.379107361 1 1 0
217 8 7 -0.05 2.427537206 11.090434715 56.557084655 1 1 0
218 8 7 -0.17 3.021028837 9.80655495 55.947970141 1 1 0
219 8 2 -0.38 1.660923764 9.139011559 56.223832644 1 1 0
220 8 6 0.14 18.4360343 16.07299273 58.551435719 0 1 0
221 8 1 0.35 18.718501662 15.829825103 59.328584394 0 1 0
222 8 8 0.1 4.228957603 13.598475717 57.69411235 1 1 0
223 8 8 0.1 3.652137165 14.037032405 56.00737258 1 1 0
224 8 8 0.1 1.556851366 11.484468029 55.93559944 1 1 0
225 8 8 0.1 2.159169285 11.032546708 57.663532844 1 1 0
226 8 8 0.1 3.863967685 9.367860743 56.57773315 1 1 0
227 8 8 0.1 3.33339076 10.006568565 54.869997721 1 1 0
228 8 1 0.35 1.446564988 8.393921201 55.429483417 1 1 0
229 8 8 0.1 1.56858636 16.818857244 57.379114383 1 1 0
230 8 8 0.1 1.707140827 14.106058479 56.488190178 1 1 0
231 8 8 0.1 1.099948134 12.749880814 58.803810797 1 1 0
232 8 8 0.1 20.226146762 16.109169307 57.635627171 0 1 0
233 8 8 0.1 20.418378448 14.048773717 59.448860939 0 1 0
234 9 4 -0.3 20.274623826 11.65785558 57.497663561 0 1 0
235 9 3 0.2 19.807108427 10.217662048 57.216822284 0 1 0
236 9 4 -0.3 20.424627194 8.947256636 56.603356296 0 1 0
237 9 3 0.05 19.958202121 7.506801033 56.322046518 0 1 0
238 9 3 0.05 18.621388799 6.784492078 56.572645334 0 1 0
239 9 3 0.12 18.467326716 9.501967664 57.47052756 0 1 0
240 9 3 -0.07 17.933537538 8.079550632 57.21873641 0 1 0
241 9 5 -0.5 17.127090462 9.947234895 58.084615261 0 1 0
242 9 6 0.14 17.178647615 11.025460704 58.34320951 0 1 0
243 9 2 -0.38 16.57106994 8.467258549 57.822859282 0 1 0
244 9 7 -0.05 1.316325429 7.107321992 55.715814024 1 1 0
245 9 4 -0.3 1.581160592 5.687567357 55.181249637 1 1 0
246 9 7 -0.05 20.325001272 4.814054978 55.35629231 0 1 0
247 9 7 -0.17 0.924665664 3.533586351 54.74604419 1 1 0
248 9 2 -0.38 19.567016672 2.85993312 55.019138764 0 1 0
249 9 6 0.14 16.310707711 9.781295238 57.351073678 0 1 0
250 9 1 0.35 16.594092491 9.532395376 58.134393427 0 1 0
251 9 8 0.1 2.114403359 7.327929833 56.499397941 1 1 0
252 9 8 0.1 1.537938557 7.766580297 54.812560977 1 1 0
253 9 8 0.1 19.453477415 5.205360027 54.734258162 0 1 0
254 9 8 0.1 20.055442039 4.753390525 56.462302075 0 1 0
255 9 8 0.1 1.768619458 3.097492118 55.376253496 1 1 0
256 9 8 0.1 1.237585101 3.736517029 53.668778891 1 1 0
257 9 1 0.35 19.355663507 2.116914274 54.222048521 0 1 0
258 9 8 0.1 20.173263597 9.897732974 58.247926418 0 1 0
259 9 8 0.1 19.59204695 7.826730107 55.290942384 0 1 0
260 9 8 0.1 18.98754397 6.464563004 57.603749468 0 1 0
261 9 8 0.1 18.833481887 9.18203859 58.501631694 0 1 0
262 9 8 0.1 17.567382367 8.399479705 56.187632276 0 1 0
263 10 4 -0.3 18.168506194 5.371036365 56.29490397 0 1 0
264 10 3 0.2 17.707403435 3.929315354 56.011311558 0 1 0
265 10 4 -0.3 18.331043839 2.662428218 55.396763361 0 1 0
266 10 3 0.05 17.871033104 1.220450413 55.112703483 0 1 0
267 10 3 0.05 16.536938256 30.49216756 55.360483373 0 0 0
268 10 3 0.12 16.370308436 3.207629921 56.262203866 0 1 0
269 10 3 -0.07 15.842820218 1.783363903 56.007601483 0 1 0
270 10 5 -0.5 15.027419208 3.646354813 56.875203718 0 1 0
271 10 6 0.14 15.075752499 4.723254793 57.13987398 0 1 0
272 10 2 -0.38 14.477954336 2.164451679 56.610521924 0 1 0
273 10 7 -0.05 19.231606873 0.827576557 54.50765025 0 1 0
274 10 4 -0.3 19.503091324 29.409744645 53.971321215 0 0 0
275 10 7 -0.05 18.250382306 28.530710927 54.143425501 0 0 0
276 10 7 -0.17 18.856206557 27.253680985 53.532056904 0 0 0
277 10 2 -0.38 17.501042854 26.573932409 53.802377675 0 0 0
278 10 6 0.14 14.213356609 3.482551681 56.138609774 0 1 0
279 10 1 0.35 14.497672787 3.22787891 56.928065193 0 1 0
280 10 8 0.1 20.027733825 1.050360095 55.29260205 0 1 0
281 10 8 0.1 19.45162439 1.48910597 53.605668497 0 1 0
282 10 8 0.1 17.3780326 28.919285041 53.520837271 0 0 0
283 10 8 0.1 17.979643991 28.467265712 55.24899116 0 0 0
284 10 8 0.1 19.701163796 26.82019029 54.162717698 0 0 0
285 10 8 0.1 19.169670343 27.459529979 52.455503792 0 0 0
286 10 1 0.35 17.292692254 25.83298925 53.002569395 0 0 0
287 10 8 0.1 18.073558606 3.609386281 57.042415692 0 1 0
288 10 8 0.1 18.237188275 0.900521339 56.143807617 0 1 0
289 10 8 0.1 16.903093427 30.172238487 56.391587507 0 0 0
290 10 8 0.1 16.004153265 3.527558995 55.231099731 0 1 0
291 10 8 0.1 16.208975389 1.46343483 57.038705617 0 1 0
292 11 4 -0.3 16.090351925 29.077240853 55.080049722 0 0 0
293 11 3 0.2 15.635671726 27.634023382 54.793712277 0 0 0
294 11 4 -0.3 16.26542035 26.370681778 54.178095093 0 0 0
295 11 3 0.05 15.811833849 24.927212793 53.891291226 0 0 0
296 11 3 0.05 14.480486176 24.192971713 54.136246859 0 0 0
297 11 3 0.12 14.301292205 26.906362427 55.041786218 0 0 0
298 11 3 -0.07 13.780116297 25.480278066 54.784378081 0 0 0
299 11 5 -0.5 12.955778896 27.338535542 55.653685035 0 0 0
300 11 6 0.14 13.000878284 28.414065888 55.924425761 0 0 0
301 11 2 -0.38 12.412881494 25.854737502 55.386083119 0 0 0
302 11 7 -0.05 17.174828807 24.540952574 53.287430273 0 0 0
303 11 4 -0.3 17.452956705 23.12507389 52.749348128 0 0 0
304 11 7 -0.05 16.203724939 22.240537744 52.918510325 0 0 0
305 11 7 -0.17 16.815696014 20.966973963 52.306034404 0 0 0
306 11 2 -0.38 15.463046756 20.281144665 52.573575556 0 0 0
307 11 6 0.14 12.144025816 27.176897123 54.914070284 0 0 0
308 11 1 0.35 12.429287826 26.916411345 55.709625239 0 0 0
309 11 8 0.1 17.968993894 24.765901564 54.073750642 0 0 0
310 11 8 0.1 17.393239547 25.204744484 52.386721104 0 0 0
311 11 8 0.1 15.330561571 22.626378315 52.295362876 0 0 0
312 11 8 0.1 15.9318198 22.174307514 54.023626205 0 0 0
313 11 8 0.1 17.661645177 20.536090315 52.937151866 0 0 0
314 11 8 0.1 17.129690973 21.175742464 51.230198526 0 0 0
315 11 1 0.35 15.257695676 19.542281276 51.771072069 0 0 0
316 11 8 0.1 16.001826897 27.314094309 55.824816411 0 0 0
317 11 8 0.1 15.445678679 25.247141866 52.860187092 0 0 0
318 11 8 0.1 14.846641347 23.873042639 55.167350993 0 0 0
319 11 8 0.1 13.935137035 27.226291501 54.010682084 0 0 0
320 11 8 0.1 14.146271467 25.160348992 55.815482215 0 0 0
321 12 4 -0.3 14.040205728 22.776604452 53.853126955 0 0 0
322 12 3 0.2 13.59195787 21.331921572 53.564050639 0 0 0
323 12 4 -0.3 14.227801164 20.072152679 52.947377712 0 0 0
324 12 3 0.05 13.780648655 18.62722357 52.657836027 0 0 0
325 12 3 0.05 12.452076801 17.887040061 52.899962134 0 0 0
326 12 3 0.12 12.260322536 20.598300751 53.809300876 0 0 0
327 12 3 -0.07 11.745470148 19.170428728 53.549092522 0 0 0
328 12 5 -0.5 10.912214094 21.023912791 54.420085492 0 0 0
329 12 6 0.14 10.954069753 22.098029666 54.696890593 0 0 0
330 12 2 -0.38 10.375895841 19.538251769 54.149569213 0 0 0
331 12 7 -0.05 15.146035477 18.247585299 52.055180345 0 0 0
332 12 4 -0.3 15.430800837 16.833690304 51.515356668 0 0 0
333 12 7 -0.05 14.1850732 15.943670761 51.681573136 0 0 0
334 12 7 -0.17 14.803177932 14.673600539 51.068003069 0 0 0
335 12 2 -0.38 13.45307222 13.981705277 51.332758846 0 0 0
336 12 6 0.14 10.102759554 20.864466767 53.677481739 0 0 0
337 12 1 0.35 9.704702909 18.655121023 54.10857952 0 0 0
338 12 8 0.1 15.938227855 18.474689446 52.842869941 0 0 0
339 12 8 0.1 15.36282831 18.913631043 51.155745027 0 0 0
340 12 8 0.1 13.311108376 16.326775238 51.057861342 0 0 0
341 12 8 0.1 13.912013519 15.87465132 52.786233575 0 0 0
342 12 8 0.1 15.650107477 14.245327391 51.699582369 0 0 0
343 12 8 0.1 15.117690876 14.885289676 49.992889459 0 0 0
344 12 1 0.35 13.250717619 13.244925647 50.527582833 0 0 0
345 12 8 0.1 13.2258027 21.651850646 52.532946505 0 0 0
346 12 8 0.1 14.146803826 18.307294497 53.688940161 0 0 0
347 12 8 0.1 12.818231972 17.567110987 53.931066268 0 0 0
348 12 8 0.1 12.626477707 20.278371677 54.84040501 0 0 0
349 12 8 0.1 11.379314977 19.490357802 52.517988388 0 0 0
350 13 4 -0.3 12.018111706 16.469262719 52.614162069 0 0 0
351 13 3 0.2 11.576305834 15.023145511 52.3223531 0 0 0
352 13 4 -0.3 12.218230117 13.766976433 51.704637698 0 0 0
353 13 3 0.05 11.77752122 12.320618288 51.412364425 0 0 0
354 13 3 0.05 10.451753767 11.574508274 51.651655796 0 0 0
355 13 3 0.12 10.247443335 14.283580609 52.564774358 0 0 0
356 13 3 -0.07 9.738925544 12.853951645 52.301771386 0 0 0
357 13 5 -0.5 8.896768764 14.702622418 53.174431632 0 0 0
358 13 6 0.14 8.935371091 15.775281959 53.457294478 0 0 0
359 13 2 -0.38 8.367041199 13.215130377 52.901006811 0 0 0
360 13 7 -0.05 13.14527053 11.94761013 50.810926979 0 0 0
361 13 4 -0.3 13.436667225 10.535729243 50.269373384 0 0 0
362 13 7 -0.05 12.194470517 9.640245453 50.432640548 0 0 0
363 13 7 -0.17 12.818695607 8.373696115 49.817989535 0 0 0
364 13 2 -0.38 11.471162488 7.675749775 50.079954242 0 0 0
365 13 6 0.14 8.089601442 14.545395957 52.42887092 0 0 0
366 13 1 0.35 7.698065666 12.33064774 52.853443968 0 0 0
367 13 8 0.1 13.935479395 12.176859096 51.59998643 0 0 0
368 13 8 0.1 13.360434358 12.615900999 49.912766749 0 0 0
369 13 8 0.1 11.319716458 10.020611344 49.808359295 0 0 0
370 13 8 0.1 11.9202686 9.568432667 51.536839891 0 0 0
371 13 8 0.1 13.66659397 7.948036864 50.450035833 0 0 0
372 13 8 0.1 13.133713338 8.588306952 48.74360321 0 0 0
373 13 1 0.35 11.271801327 6.941057803 49.272128237 0 0 0
374 13 8 0.1 11.942461004 14.703216438 53.353457234 0 0 0
375 13 8 0.1 11.411366049 12.640547361 50.381260291 0 0 0
376 13 8 0.1 10.817908938 11.2545792 52.68275993 0 0 0
377 13 8 0.1 9.881288164 14.603509682 51.533670224 0 0 0
378 13 8 0.1 10.105080715 12.534022571 53.33287552 0 0 0
379 14 4 -0.3 10.024113362 10.155351354 51.363181719 0 0 0
380 14 3 0.2 9.588758979 8.707830931 51.068646376 0 0 0
381 14 4 -0.3 10.23675044 7.455288693 50.449901789 0 0 0
382 14 3 0.05 9.802494635 6.007532629 50.154903216 0 0 0
383 14 3 0.05 8.479560108 5.255512163 50.391354704 0 0 0
384 14 3 0.12 8.262697905 7.962337859 51.308233439 0 0 0
385 14 3 -0.07 7.760525651 6.530982711 51.042441508 0 0 0
386 14 5 -0.5 6.909486264 8.374800422 51.916750256 0 0 0
387 14 6 0.14 6.944825881 9.445958753 52.205663674 0 0 0
388 14 2 -0.38 6.386360783 6.885509365 51.640422774 0 0 0
389 14 7 -0.05 11.172577007 5.641162609 49.554696946 0 0 0
390 14 4 -0.3 11.470598767 4.231326206 49.011425084 0 0 0
391 14 7 -0.05 10.231959713 3.330397435 49.171739433 0 0 0
392 14 7 -0.17 10.862291731 2.067396231 48.556020697 0 0 0
393 14 2 -0.38 9.517360197 1.363413828 48.815188699 0 0 0
394 14 6 0.14 6.1045945 8.219820174 51.168264858 0 0 0
395 14 1 0.35 5.719624103 5.999714734 51.586292463 0 0 0
396 14 8 0.1 11.960791601 5.872546008 50.345126851 0 0 0
397 14 8 0.1 11.386100771 6.311689844 48.657813015 0 0 0
398 14 8 0.1 9.356428659 3.708022307 48.54688362 0 0 0
399 14 8 0.1 9.956627893 3.255787229 50.275472037 0 0 0
400 14 8 0.1 11.711147328 1.644354216 49.188539144 0 0 0
401 14 8 0.1 11.177801039 2.284929771 47.48236666 0 0 0
402 14 1 0.35 9.320989442 30.630813329 48.004735087 0 -1 0
403 14 8 0.1 9.954914149 8.387901857 52.099750511 0 0 0
404 14 8 0.1 9.436339465 6.327461703 49.123799082 0 0 0
405 14 8 0.1 8.845715279 4.93558309 51.422458838 0 0 0
406 14 8 0.1 7.896542735 8.282266933 50.277129305 0 0 0
407 14 8 0.1 7.39437048 6.850911785 50.011337374 0 0 0
408 15 4 -0.3 8.058253592 3.835006199 50.100212822 0 0 0
409 15 3 0.2 7.629360064 2.386113703 49.802957442 0 0 0
410 15 4 -0.3 8.283404761 1.137225253 49.183196982 0 0 0
411 15 3 0.05 7.855611391 29.688102418 48.885479456 0 -1 0
412 15 3 0.05 6.53553825 28.93018768 49.119085973 0 -1 0
413 15 3 0.12 6.306128945 1.634708501 50.039705155 0 0 0
414 15 3 -0.07 5.810313031 30.201657965 49.771129984 0 -1 0
415 15 5 -0.5 4.950409348 2.040582946 50.647068422 0 0 0
416 15 6 0.14 4.982477102 3.110196182 50.9420247 0 0 0
417 15 2 -0.38 4.433897205 30.549524914 50.367844226 0 -1 0
418 15 7 -0.05 9.227997347 29.328378418 48.286517275 0 -1 0
419 15 4 -0.3 9.53263776 27.92061683 47.741538835 0 -1 0
420 15 7 -0.05 8.297583008 27.014262462 47.898896918 0 -1 0
421 15 7 -0.17 8.934008392 25.754836563 47.282123708 0 -1 0
422 15 2 -0.38 7.591707377 25.044833246 47.538489428 0 -1 0
423 15 6 0.14 4.147781142 1.887875032 49.895690837 0 0 0
424 15 1 0.35 3.769420597 29.662458179 50.30715267 0 -1 0
425 15 8 0.1 10.014206953 29.561885818 49.078318202 0 -1 0
426 15 8 0.1 9.43987002 30.001133213 47.390910826 0 -1 0
427 15 8 0.1 7.421287215 27.389143941 47.273461457 0 -1 0
428 15 8 0.1 8.02113364 26.936850821 49.002157151 0 -1 0
429 15 8 0.1 9.783809618 25.334415069 47.915119443 0 -1 0
430 15 8 0.1 9.249996056 25.975293746 46.209206944 0 -1 0
431 15 1 0.35 7.398324 24.314327949 46.72543045 0 -1 0
432 15 8 0.1 7.995515234 2.06618463 50.834061576 0 0 0
433 15 8 0.1 8.221766562 29.368173344 49.91658359 0 -1 0
434 15 8 0.1 6.901693421 28.610258607 50.150190108 0 -1 0
435 15 8 0.1 6.672284116 1.314779427 51.070809289 0 0 0
436 15 8 0.1 5.44415786 30.521587039 48.74002585 0 -1 0
437 16 4 -0.3 6.120574688 27.508363232 48.82528255 0 -1 0
438 16 3 0.2 5.698151241 26.058129837 48.525313529 0 -1 0
439 16 4 -0.3 6.358235102 24.812922043 47.90455053 0 -1 0
440 16 3 0.05 5.93691337 23.362463615 47.604120456 0 -1 0
441 16 3 0.05 4.619730017 22.598670912 47.834876978 0 -1 0
442 16 3 0.12 4.377778545 25.300828672 48.7592168 0 -1 0
443 16 3 -0.07 3.888329638 23.866113579 48.487864166 0 -1 0
444 16 5 -0.5 3.019580161 25.700106266 49.36541345 0 -1 0
445 16 6 0.14 3.048367132 26.768130526 49.666404333 0 -1 0
446 16 2 -0.38 2.509692467 24.20731334 49.083298547 0 -1 0
447 16 7 -0.05 7.311573384 23.009393373 47.006415252 0 -1 0
448 16 4 -0.3 7.622825895 21.603736888 46.459741958 0 -1 0
449 16 7 -0.05 6.391382016 20.691976423 46.614140391 0 -1 0
450 16 7 -0.17 7.033887073 19.436152925 45.996325976 0 -1 0
451 16 2 -0.38 5.694245456 18.720143968 46.249883899 0 -1 0
452 16 6 0.14 2.21920318 25.549696277 48.611176389 0 -1 0
453 16 1 0.35 1.847496916 23.319014379 49.016052509 0 -1 0
454 16 8 0.1 8.095767327 23.245014297 47.79958774 0 -1 0
455 16 8 0.1 7.521783977 23.684366874 46.112087439 0 -1 0
456 16 8 0.1 5.514333756 21.064112194 45.988120205 0 -1 0
457 16 8 0.1 6.113827481 20.611759393 47.716922628 0 -1 0
458 16 8 0.1 7.884622302 19.018355179 46.629804129 0 -1 0
459 16 8 0.1 7.350339864 19.659534627 44.924151455 0 -1 0
460 16 1 0.35 5.503846434 17.991737522 45.434241647 0 -1 0
461 16 8 0.1 6.064306412 25.738200763 49.556417663 0 -1 0
462 16 8 0.1 6.303068541 23.042534541 48.63522459 0 -1 0
463 16 8 0.1 4.985885187 22.278741838 48.865981112 0 -1 0
464 16 8 0.1 4.011623374 25.620757745 47.728112666 0 -1 0
465 16 8 0.1 4.254484808 23.546184505 49.5189683 0 -1 0
466 17 4 -0.3 4.211118334 21.175558571 47.538418335 0 -1 0
467 17 3 0.2 3.795174056 19.724015477 47.235742127 0 -1 0
468 17 4 -0.3 4.461282879 18.482515128 46.613989944 0 -1 0
469 17 3 0.05 4.046441849 17.030752313 46.310853787 0 -1 0
470 17 3 0.05 2.732176621 16.261098079 46.538755349 0 -1 0
471 17 3 0.12 2.47768819 18.960834642 47.466795923 0 -1 0
472 17 3 -0.07 1.994616819 17.524485859 47.192671666 0 -1 0
473 17 5 -0.5 1.117040239 19.353506796 48.071812915 0 -1 0
474 17 6 0.14 1.142537744 20.41989821 48.378829609 0 -1 0
475 17 2 -0.38 0.613787965 17.859011092 47.786813375 0 -1 0
476 17 7 -0.05 5.423346346 16.684343425 45.714418417 0 -1 0
477 17 4 -0.3 5.741204257 15.280822284 45.166062031 0 -1 0
478 17 7 -0.05 4.513397746 14.363675339 45.317497492 0 -1 0
479 17 7 -0.17 5.161968651 13.11148126 44.698655165 0 -1 0
480 17 2 -0.38 3.825015254 12.389482069 44.949399836 0 -1 0
481 17 6 0.14 20.318901821 19.205419784 47.314749296 -1 -1 0
482 17 1 0.35 19.953894217 16.969519763 47.713020156 -1 -1 0
483 17 8 0.1 6.205513996 16.922067351 46.508962977 0 -1 0
484 17 8 0.1 5.631883903 17.36152673 44.82137037 0 -1 0
485 17 8 0.1 3.635609306 14.733063146 44.690887518 0 -1 0
486 17 8 0.1 4.234750446 14.280649026 46.419796123 0 -1 0
487 17 8 0.1 6.013626238 12.696310434 45.332620856 0 -1 0
488 17 8 0.1 5.478873328 13.337788296 43.627227842 0 -1 0
489 17 1 0.35 3.637597572 11.663178044 44.131196258 0 -1 0
490 17 8 0.1 3.429018885 20.04394455 46.204637993 0 -1 0