LAMMPS data file via write_data, version 16 Mar 2018, timestep = 50000106

7722 atoms
10 atom types
5361 bonds
13 bond types
3500 angles
31 angle types
1677 dihedrals
51 dihedral types
20 impropers
1 improper types

-9.0031992387025639e-01 2.0829681923857262e+01 xlo xhi
-1.2575963858101309e+00 3.1337406385809665e+01 ylo yhi
-7.0689784424370936e+00 1.6952195244243993e+02 zlo zhi

Masses

1 12.0112
2 12.0112
3 1.00797
4 1.00797
5 1.00797
6 1.00797
7 14.0067
8 15.9994
9 15.9994
10 15.9994

Pair Coeffs # lj/cut/coul/cut

1 0.038 2.44997
2 0.228 2.85978
3 0.039 3.87541
4 0.228 2.85978
5 0.167 3.50123
6 0.038 2.44997
7 0.039 3.87541
8 0.038 2.44997
9 0.155416 3.16552
10 0.038 2.44997

Bond Coeffs # harmonic

1 540.634 0.96
2 322.716 1.526
3 356.599 1.47
4 457.459 1.026
5 273.2 1.425
6 340.618 1.105
7 322.716 1.526
8 384 1.42
9 540.634 0.96
10 384 1.42
11 273.2 1.425
12 322.716 1.526
13 340.618 1.105

Angle Coeffs # harmonic

1 58.5 106
2 46.6 110.5
3 44.4 110
4 58.5 106
5 70 109.5
6 46.6 110.5
7 46.6 110.5
8 70 109.5
9 50 104.5
10 70 109.5
11 70 109.5
12 57 109.5
13 70 109.5
14 44.4 110
15 57 109.5
16 60 109.5
17 46.6 110.5
18 70 109.5
19 44.4 110
20 50 109.5
21 57.3 109.5
22 41.6 110
23 36 105.5
24 70 109.5
25 44.4 110
26 57 109.5
27 39.5 106.4
28 60 109.5
29 70 109.5
30 70 109.5
31 57 109.5

Dihedral Coeffs # harmonic

1 0.13 1 3
2 0.1581 1 3
3 0.1581 1 3
4 0.13 1 3
5 0.1581 1 3
6 0.1581 1 3
7 0.1581 1 3
8 0.1581 1 3
9 0.13 1 3
10 0.13 1 3
11 0.13 1 3
12 0.13 1 3
13 0.13 1 3
14 0.13 1 3
15 0.1581 1 3
16 0.1581 1 3
17 0.1581 1 3
18 0.1581 1 3
19 0.1581 1 3
20 0.1581 1 3
21 0.1581 1 3
22 0.1581 1 3
23 0.13 1 3
24 0.1581 1 3
25 0.1581 1 3
26 0.1581 1 3
27 0.1581 1 3
28 0.1581 1 3
29 0.1581 1 3
30 0.1581 1 3
31 0.1581 1 3
32 0.1581 1 3
33 0.1581 1 3
34 0.1581 1 3
35 0.1581 1 3
36 0.1333 1 3
37 0.1333 1 3
38 0.13 1 3
39 0.13 1 3
40 0.1581 1 3
41 0.1581 1 3
42 0.1581 1 3
43 0.1581 1 3
44 0.13 1 3
45 0.13 1 3
46 0.13 1 3
47 0.1581 1 3
48 0.1581 1 3
49 0.1581 1 3
50 0.1581 1 3
51 0.1581 1 3

Improper Coeffs # cvff

1 0 1 0

Atoms # full

622 34 9 -8.1999999999999995e-01 2.2096311586249997e+00 3.5341213715712820e+00 -2.7760911053518917e+00 1 0 0
624 34 4 4.0999999999999998e-01 3.6037784408487803e+00 3.8774532731321534e+00 -2.8582649241979015e+00 1 0 0
623 34 4 4.0999999999999998e-01 2.0465902687593811e+00 3.4041151837379742e+00 -1.4085325201608041e+00 1 0 0
4645 1375 9 -8.1999999999999995e-01 5.8791468926027723e-01 5.1982048091382165e+00 -5.7701251308005927e+00 1 0 1
5098 1526 9 -8.1999999999999995e-01 6.8538918261225605e+00 4.3834652243895471e+00 -1.6496952119945270e+00 0 0 0
5099 1526 4 4.0999999999999998e-01 7.2650440284083464e+00 3.3762371416253871e+00 -2.5553085644650180e+00 0 0 0
5100 1526 4 4.0999999999999998e-01 7.8796225561363302e+00 4.2925545260114566e+00 -6.7339768923154408e-01 0 0 0
4222 1234 9 -8.1999999999999995e-01 4.0758860804814150e+00 1.8578242446356472e+00 4.7434821666481047e-01 0 0 0
6772 2084 9 -8.1999999999999995e-01 8.2190524492956705e+00 3.3724277872213562e+00 -5.7452061743555154e+00 0 0 0
7246 2242 9 -8.1999999999999995e-01 1.1235339453454252e+00 5.9361944186592008e-01 -5.0531468329143978e+00 0 1 0
5476 1652 9 -8.1999999999999995e-01 5.4566658403168056e+00 1.3701507508071626e+00 -3.6733310363318967e+00 0 0 0
5629 1703 9 -8.1999999999999995e-01 7.0653227748255025e+00 -2.3735425537680410e-01 -6.9360266877813848e-01 0 0 0
5477 1652 4 4.0999999999999998e-01 4.6556698152979381e+00 1.3540331399675969e+00 -2.4720736406197044e+00 0 0 0
5478 1652 4 4.0999999999999998e-01 6.5392534710624943e+00 5.6697655297956517e-01 -3.1459196800708003e+00 0 0 0
823 101 9 -8.1999999999999995e-01 5.1134346207838153e+00 5.6634876907103635e+00 -4.6680255077567283e+00 0 0 0
1153 211 9 -8.1999999999999995e-01 3.6278946695347685e+00 6.3872885893905798e+00 -3.4159670054137409e-01 0 0 0
824 101 4 4.0999999999999998e-01 6.4682254876577181e+00 5.3618317758598195e+00 -4.2987775228262048e+00 0 0 0
7248 2242 4 4.0999999999999998e-01 2.3460868602481311e+00 1.1151245971820809e+00 -4.4742625071056930e+00 0 1 0
4647 1375 4 4.0999999999999998e-01 -1.0252924468953012e-01 5.6537274226866270e+00 -4.6480132373261478e+00 1 0 1
1916 465 4 4.0999999999999998e-01 7.3528315417744472e-01 5.9585393967471614e+00 -1.5172238751044713e+00 0 0 0
2891 790 4 4.0999999999999998e-01 7.5038384647315959e-01 8.7872637844161672e-01 -1.9327768503949725e+00 0 0 0
3097 859 9 -8.1999999999999995e-01 9.3551281066819154e+00 6.3650610366373481e+00 -3.4013073492255455e+00 0 0 0
6041 1840 4 4.0999999999999998e-01 1.2504133299303453e+00 -6.3442204184809992e-01 9.5033116358373937e-01 0 0 0
4223 1234 4 4.0999999999999998e-01 5.1197717401244978e+00 2.6075362903623631e+00 1.1654624189498990e+00 0 0 0
4646 1375 4 4.0999999999999998e-01 1.8733245599550152e+00 4.6515273158913235e+00 -5.4259825800049226e+00 1 0 1
825 101 4 4.0999999999999998e-01 4.9615926482416075e+00 5.1758988527132095e+00 -5.9896334029485638e+00 0 0 0
2890 790 9 -8.1999999999999995e-01 -2.3146121519004098e-01 1.2326551098438643e+00 -9.0558053911130743e-01 0 0 0
7247 2242 4 4.0999999999999998e-01 1.2723434745384146e+00 -8.5283291157964514e-01 -5.2078320356327907e+00 0 1 0
6773 2084 4 4.0999999999999998e-01 7.4836762255418341e+00 2.1302289248454298e+00 -5.5794969864101436e+00 0 0 0
1155 211 4 4.0999999999999998e-01 4.5197281261908557e+00 5.2266376512782831e+00 -2.6784420920157315e-01 0 0 0
6277 1919 9 -8.1999999999999995e-01 9.6697063145717765e-01 4.1356498816920064e+00 1.4285386100692212e+00 0 0 0
1539 339 4 4.0999999999999998e-01 4.5021969075289849e+00 1.7362027772116300e+00 -6.4407680878207234e+00 0 0 0
6774 2084 4 4.0999999999999998e-01 9.5755424174064512e+00 3.1165116408056464e+00 -5.4181297990297015e+00 0 0 0
5630 1703 4 4.0999999999999998e-01 7.5123082626478022e+00 1.1296153681314021e+00 -6.0457221157652863e-01 0 0 0
6278 1919 4 4.0999999999999998e-01 3.5188840119961901e-01 2.8995805435915876e+00 1.4303271320780311e+00 0 0 0
4075 1185 9 -8.1999999999999995e-01 3.0655859087387145e+00 -1.2035621298161614e+00 -1.8948904355415412e+00 1 1 0
6814 2098 9 -8.1999999999999995e-01 8.5306142049340377e+00 -9.0148742691598438e-01 -5.1475696074554573e+00 0 1 0
1625 368 4 4.0999999999999998e-01 8.4315006166131639e+00 1.4994008564076770e+01 5.8710457577204753e+00 0 0 0
5631 1703 4 4.0999999999999998e-01 6.9463429610726797e+00 -6.2388526665167399e-01 7.2541988706077054e-01 0 0 0
2704 728 9 -8.1999999999999995e-01 9.8676325075524520e+00 2.0457762296279220e+00 -2.5717707717691605e+00 0 0 0
6741 2073 4 4.0999999999999998e-01 8.7440407920704377e+00 7.1161195900557166e+00 -3.3352171325503077e-01 0 0 0
2475 651 4 4.0999999999999998e-01 -4.9713574771587210e-01 2.8522780896870921e+00 -4.2280185377191293e+00 1 0 0
1915 465 9 -8.1999999999999995e-01 -7.1910725807685094e-01 5.6449169687995493e+00 -1.6492847389809420e+00 0 0 0
3098 859 4 4.0999999999999998e-01 9.4739880403958452e+00 4.9488553705740284e+00 -3.4134289635971986e+00 0 0 0
4224 1234 4 4.0999999999999998e-01 4.2316206950213520e+00 5.1097535262654326e-01 8.7138541650444123e-01 0 0 0
6279 1919 4 4.0999999999999998e-01 2.3436652586174564e+00 4.0710080093104963e+00 1.2916240596736583e+00 0 0 0
2705 728 4 4.0999999999999998e-01 9.4277131212390053e+00 7.5967665989412936e-01 -2.8848319488409651e+00 0 0 0
1154 211 4 4.0999999999999998e-01 3.5549880314836901e+00 6.8531171021032895e+00 1.0766153512020145e+00 0 0 0
6252 1910 4 4.0999999999999998e-01 7.7003081565779370e+00 6.6590254988187416e+00 -6.4812785400743653e+00 0 0 1
2123 534 4 4.0999999999999998e-01 -7.5026056726814971e-01 1.8087847731016526e+00 -6.9326264807704234e+00 1 0 1
6576 2018 4 4.0999999999999998e-01 2.5900663178728447e+00 6.8220211301691851e+00 -3.8278026891019068e+00 0 0 0
6815 2098 4 4.0999999999999998e-01 8.6517567145465168e+00 -1.0153141676668604e+00 -6.5457556680790487e+00 0 1 0
5580 1686 4 4.0999999999999998e-01 7.3965871582350147e+00 1.4869744938361258e+01 1.2784130299064606e-02 0 0 0
4736 1405 4 4.0999999999999998e-01 6.0881338511949439e+00 8.9980678647411079e+00 2.5076228787841757e+00 0 0 0
6734 2071 4 4.0999999999999998e-01 -7.6829816197621736e-01 1.0624502728584030e+01 -1.1479736647119552e+00 1 0 0
3303 927 4 4.0999999999999998e-01 -1.7394725046898069e-01 1.3544983910332739e+01 1.3395010554088524e+00 0 0 0
6740 2073 4 4.0999999999999998e-01 6.5574365896474474e+00 7.1286982215044237e+00 7.4872773336713827e-02 0 0 0
671 50 4 4.0999999999999998e-01 6.5747408294405210e+00 1.2873340482639744e+01 -5.8949518920632320e+00 0 0 0
6739 2073 9 -8.1999999999999995e-01 7.8098915319048690e+00 7.2086265918921653e+00 7.3461557705080238e-01 0 0 0
6575 2018 4 4.0999999999999998e-01 2.4815460203851072e+00 8.1675301362525907e+00 -2.0632437874260883e+00 0 0 0
5181 1553 4 4.0999999999999998e-01 2.2118574783044394e+00 1.4063021278736127e+01 -1.9953455636329367e+00 1 0 0
6050 1843 4 4.0999999999999998e-01 7.5711425441180751e+00 8.5258733791645138e+00 -2.8651592939621171e+00 0 0 0
6051 1843 4 4.0999999999999998e-01 5.6683455075614448e+00 7.4050066925654701e+00 -2.3431420494254072e+00 0 0 0
2993 824 4 4.0999999999999998e-01 2.5469051853606368e+00 1.1773317612096259e+01 -5.4231770986369430e+00 0 0 1
6250 1910 9 -8.1999999999999995e-01 7.6676995270801536e+00 8.0880927078857656e+00 -6.4869195499536181e+00 0 0 1
6574 2018 9 -8.1999999999999995e-01 1.9469915045671327e+00 7.9778534823749023e+00 -3.3423702344015238e+00 0 0 0
1573 351 9 -8.1999999999999995e-01 4.7008852838803499e+00 1.0187297159085936e+01 -5.5281901439906704e+00 0 0 0
5245 1575 9 -8.1999999999999995e-01 5.7952063423681297e+00 1.3139937507800756e+01 -2.9613056549619881e+00 0 0 1
6065 1848 4 4.0999999999999998e-01 4.0738467418440498e+00 1.0070782092213880e+01 -9.2736764611391875e-01 0 0 0
6064 1848 9 -8.1999999999999995e-01 3.2050491790927937e+00 1.0999605925626161e+01 -1.4342993233637018e+00 0 0 0
6049 1843 9 -8.1999999999999995e-01 6.2873211938733187e+00 8.7183300230363283e+00 -2.3399517197884436e+00 0 0 0
6066 1848 4 4.0999999999999998e-01 3.3917545645950709e+00 1.0868850602501112e+01 -2.8399307280224986e+00 0 0 0
3301 927 9 -8.1999999999999995e-01 1.6916579286177519e-01 1.3162723104536175e+01 1.7670614985596795e-03 0 0 0
7675 2385 9 -8.1999999999999995e-01 7.5014387637190643e+00 1.1495624049008189e+01 2.2413771295168425e-01 0 0 0
4954 1478 9 -8.1999999999999995e-01 3.9868836086434861e-01 8.7155116926426732e+00 7.2238770706723288e-01 0 0 0
2992 824 9 -8.1999999999999995e-01 1.5917206284466665e+00 1.2274896003545264e+01 -4.4006241556903207e+00 0 0 1
6253 1911 9 -8.1999999999999995e-01 8.8341455271001301e+00 1.0907537959518434e+01 -3.8260990072491041e+00 0 0 0
2994 824 4 4.0999999999999998e-01 9.7588577069707683e-01 1.1076982919179171e+01 -3.9465076252076683e+00 0 0 1
1575 351 4 4.0999999999999998e-01 4.8357020079512614e+00 8.7893835908996802e+00 -5.6597756325270518e+00 0 0 0
5246 1575 4 4.0999999999999998e-01 5.9766632277532388e+00 1.2172216834097785e+01 -1.9068880500024445e+00 0 0 1
1531 337 9 -8.1999999999999995e-01 4.3850169351177639e+00 1.3809049913992403e+01 1.2096071656269867e+00 0 0 0
5247 1575 4 4.0999999999999998e-01 6.9420588135256622e+00 1.4038102790526786e+01 -2.8945119903044438e+00 0 0 1
7676 2385 4 4.0999999999999998e-01 8.8331873927455273e+00 1.1896969901478343e+01 6.4158771858014940e-01 0 0 0
1574 351 4 4.0999999999999998e-01 5.6829648593107898e+00 1.0397549815539408e+01 -4.5399251620637457e+00 0 0 0
3302 927 4 4.0999999999999998e-01 1.4839826350179179e+00 1.2589726808496387e+01 1.5145933379193313e-01 0 0 0
7677 2385 4 4.0999999999999998e-01 7.3708112916811102e+00 1.0150183600987228e+01 -8.1424721780892453e-02 0 0 0
4041 1173 4 4.0999999999999998e-01 1.4301443645668708e+00 8.7227770894445236e+00 -6.3296575669834425e+00 1 0 1
1532 337 4 4.0999999999999998e-01 4.4707527530124951e+00 1.2461746273171073e+01 7.6087857679316595e-01 0 0 0
6251 1910 4 4.0999999999999998e-01 8.8286171478672344e+00 8.5503888243394748e+00 -5.7611728125387369e+00 0 0 1
6255 1911 4 4.0999999999999998e-01 9.0271291584924445e+00 1.0943371064686662e+01 -2.3642032970156945e+00 0 0 0
4956 1478 4 4.0999999999999998e-01 5.7947149258667441e-01 7.3244993896385733e+00 1.1475701222498267e+00 0 0 0
4955 1478 4 4.0999999999999998e-01 1.7202506093532639e+00 9.2249644386385068e+00 8.5283434811232095e-01 0 0 0
4039 1173 9 -8.1999999999999995e-01 3.3428837378893933e-01 9.4952306233555159e+00 -6.6528885336055996e+00 1 0 1
1762 414 9 -8.1999999999999995e-01 -8.1895926630441374e-01 9.3410875481491100e+00 4.8773798437555698e+00 1 0 0
2148 542 4 4.0999999999999998e-01 4.5771193809375363e+00 -9.8250246415619469e-01 -5.0716577190935679e+00 0 0 1
7178 2219 4 4.0999999999999998e-01 3.9670637583854624e+00 1.4120106411185319e+01 -4.8098196809643596e+00 0 0 0
7177 2219 9 -8.1999999999999995e-01 4.1984267121722647e+00 1.4889851372459640e+01 -6.1039677201525278e+00 0 0 0
6735 2071 4 4.0999999999999998e-01 -6.3831046908946643e-01 9.0517180989134403e+00 -2.6577256425607230e+00 1 0 0
2249 576 4 4.0999999999999998e-01 -6.5393686142065788e-01 1.3661189268972352e+01 -2.7678094724693647e+00 1 0 0
6254 1911 4 4.0999999999999998e-01 8.7710962375650361e+00 1.2340507006427005e+01 -4.1058636984489310e+00 0 0 0
3151 877 9 -8.1999999999999995e-01 1.6510323900999000e+00 1.4987500258138219e+01 9.7365019685858982e+00 1 0 0
672 50 4 4.0999999999999998e-01 7.8299033844413151e+00 1.1195442324031804e+01 -7.0661892181252819e+00 0 0 0
6067 1849 9 -8.1999999999999995e-01 8.2578545810785879e+00 2.7601358349815408e+00 1.8254274920383302e+00 0 0 0
3846 1108 4 4.0999999999999998e-01 9.5337005894377782e+00 5.4204073893280746e+00 2.8047291367637519e+00 0 0 0
1909 463 9 -8.1999999999999995e-01 9.1443329217774458e+00 9.9555506964623746e+00 3.5074228521241677e+00 0 0 0
5331 1603 4 4.0999999999999998e-01 -4.2602609463565866e-01 5.8927894721579248e+00 9.9555348418952505e+00 1 0 0
7298 2259 4 4.0999999999999998e-01 7.1196507826444122e-01 3.5458150569146829e+00 1.0305609832998273e+01 0 0 0
5105 1528 4 4.0999999999999998e-01 2.8925440550961228e+00 5.8019163696678060e+00 9.9443244272668352e+00 1 0 0
1367 282 4 4.0999999999999998e-01 -2.0322966529561706e-01 1.1925928076445076e+00 3.7245762409654963e+00 1 0 0
4144 1208 9 -8.1999999999999995e-01 5.4163833233959764e+00 4.0971326110327251e+00 9.9849696495740279e+00 0 0 0
6867 2115 4 4.0999999999999998e-01 -3.1592122055080940e-02 -1.5492774392266004e-01 7.8745902414552003e+00 0 0 0
755 78 4 4.0999999999999998e-01 6.4542775370714880e+00 5.7224677962673827e+00 2.9697579255024298e+00 0 0 0
4296 1258 4 4.0999999999999998e-01 4.8876077422407327e-01 5.2801729113844340e+00 6.8183591691330596e+00 0 0 0
6069 1849 4 4.0999999999999998e-01 7.5494777562536672e+00 3.3104583398276208e+00 3.0042113931156784e+00 0 0 0
756 78 4 4.0999999999999998e-01 4.8201463582122139e+00 4.3380082578661217e+00 4.0542338729769591e+00 0 0 0
7299 2259 4 4.0999999999999998e-01 1.7499623323908735e+00 1.9584733531749483e+00 9.0679881440639338e+00 0 0 0
3844 1108 9 -8.1999999999999995e-01 9.3241795519105573e+00 5.5402601430861154e+00 4.1892118748259959e+00 0 0 0
1434 304 4 4.0999999999999998e-01 7.2410322435512402e+00 3.4478851709706682e-01 3.7696122161362466e+00 0 0 0
6040 1840 9 -8.1999999999999995e-01 1.2033732095382830e+00 -4.5634151931249090e-01 2.3255436598175900e+00 0 0 0
6534 2004 4 4.0999999999999998e-01 5.3115279301662790e+00 8.9859350736174182e-01 8.9185581904773272e+00 0 0 0
6533 2004 4 4.0999999999999998e-01 4.8306436983451242e+00 2.9633019483910944e-01 6.8033708325596409e+00 0 0 0
2534 671 4 4.0999999999999998e-01 2.6243078598809935e+00 1.8403040766191239e+00 3.1904002560104376e+00 0 0 0
2535 671 4 4.0999999999999998e-01 3.4178742553790564e+00 2.2341665819181435e+00 5.3750613984030942e+00 0 0 0
1432 304 9 -8.1999999999999995e-01 5.8745959341494531e+00 3.6411851371296161e-01 3.3751683348239250e+00 0 0 0
6865 2115 9 -8.1999999999999995e-01 -8.8856121603208549e-02 3.3721019092322763e-01 6.5051916211450189e+00 0 0 0
6532 2004 9 -8.1999999999999995e-01 4.2886925231121724e+00 1.0408216603242741e+00 7.8908979987236094e+00 0 0 0
4605 1361 4 4.0999999999999998e-01 7.9986928302698264e+00 4.3219311121063804e+00 6.3815257771023672e+00 0 0 0
4603 1361 9 -8.1999999999999995e-01 7.0364278096335520e+00 3.3260729380098732e+00 6.1067848127094981e+00 0 0 0
4604 1361 4 4.0999999999999998e-01 7.6788511751125510e+00 2.0950850389867304e+00 6.3038279464338194e+00 0 0 0
754 78 9 -8.1999999999999995e-01 5.3399559541018906e+00 4.8656375185828580e+00 2.8402109728874945e+00 0 0 0
2791 757 9 -8.1999999999999995e-01 3.8002403416783901e+00 5.5294207689352772e+00 6.8069408373857181e+00 0 0 0
2533 671 9 -8.1999999999999995e-01 2.4347623241240748e+00 2.5855099639670085e+00 4.3897904093293976e+00 0 0 0
5485 1655 9 -8.1999999999999995e-01 8.2064145697448883e+00 6.1154231769246206e+00 8.5167823729835224e+00 0 0 0
7297 2259 9 -8.1999999999999995e-01 1.2275238296980893e+00 3.2636173621698701e+00 8.9786985303676481e+00 0 0 0
2875 785 9 -8.1999999999999995e-01 8.6303293070083615e+00 1.8054859095938547e+00 9.2472560528416619e+00 0 0 0
6866 2115 4 4.0999999999999998e-01 3.2356328409744595e-01 1.6558485513023229e+00 6.6229672412255143e+00 0 0 0
2793 757 4 4.0999999999999998e-01 5.1807948525195915e+00 5.7653227942350274e+00 6.9393083418889994e+00 0 0 0
4295 1258 4 4.0999999999999998e-01 4.3197621204551180e-02 3.9875406892735126e+00 4.7701676131448734e+00 0 0 0
2792 757 4 4.0999999999999998e-01 3.4835784351309429e+00 4.3271117321019688e+00 7.4644364678932789e+00 0 0 0
5486 1655 4 4.0999999999999998e-01 8.1290937277007966e+00 5.6313395485947337e+00 9.9651019590097736e+00 0 0 0
4146 1208 4 4.0999999999999998e-01 6.3453542919685884e+00 3.5829770597945063e+00 8.9913488335130314e+00 0 0 0
2877 785 4 4.0999999999999998e-01 8.6387628538217811e+00 4.2647371761893987e-01 9.8010619003101453e+00 0 0 0
4294 1258 9 -8.1999999999999995e-01 -4.6770885999939976e-01 4.8477220106784671e+00 5.8317867664254432e+00 0 0 0
6068 1849 4 4.0999999999999998e-01 9.4777447840411835e+00 2.1420611802193652e+00 2.3208509230071477e+00 0 0 0
3141 873 4 4.0999999999999998e-01 2.1457428239266285e+00 5.6186764953341788e+00 4.3406450043036937e+00 0 0 0
4145 1208 4 4.0999999999999998e-01 4.3514570908983270e+00 3.1290247485438023e+00 1.0257969296945671e+01 0 0 0
1433 304 4 4.0999999999999998e-01 5.5102895866065360e+00 -1.0357715984778306e+00 3.5066496048791058e+00 0 0 0
5681 1720 4 4.0999999999999998e-01 8.7301718850224379e+00 -1.0588102661254719e+00 7.3600947823765033e+00 0 1 0
6612 2030 4 4.0999999999999998e-01 2.9652590989022607e+00 -7.6589824315510990e-01 1.0170644369829986e+01 0 1 0
5915 1798 4 4.0999999999999998e-01 5.6495291536161085e+00 1.1757953382661892e+01 9.0040817809318447e+00 0 0 0
1764 414 4 4.0999999999999998e-01 4.7778410052446853e-02 9.0738753577472497e+00 3.7998156292240721e+00 1 0 0
1911 463 4 4.0999999999999998e-01 8.7748634820615266e+00 8.5838253330041230e+00 3.8675966003504532e+00 0 0 0
3630 1036 4 4.0999999999999998e-01 -3.3509374038368761e-02 1.2258548091389327e+01 1.0322399975686309e+01 0 0 0
6239 1906 4 4.0999999999999998e-01 9.6869478718093109e+00 1.2445438152868990e+01 1.0313092120645379e+01 0 0 0
6476 1985 4 4.0999999999999998e-01 8.7157627458104567e+00 1.0377484387456899e+01 8.5278090139321989e+00 0 0 0
1891 457 9 -8.1999999999999995e-01 6.0147930961916245e+00 1.2241127845911251e+01 4.2038400282716921e+00 0 0 0
1626 368 4 4.0999999999999998e-01 6.7719479586304843e+00 1.3907853173885693e+01 7.1159200855765947e+00 0 0 0
1659 379 4 4.0999999999999998e-01 2.9650448912520790e+00 1.0714450602133295e+01 9.5417673005624852e+00 0 0 0
3752 1077 4 4.0999999999999998e-01 1.3584562519690074e-01 1.3899217731793801e+01 4.5841307506257918e+00 1 0 0
7148 2209 4 4.0999999999999998e-01 8.3591732835588384e-01 1.4015260701499528e+01 -6.3743469511976825e+00 0 0 1
1657 379 9 -8.1999999999999995e-01 2.0367053359744074e+00 1.0487201614447219e+01 1.0508158403846920e+01 0 0 0
5585 1688 4 4.0999999999999998e-01 1.7822239452349844e+00 1.2506478434016934e+01 7.5583282091355901e+00 0 0 0
5914 1798 9 -8.1999999999999995e-01 4.8081876407953654e+00 1.2828117656148708e+01 8.6719874340853611e+00 0 0 0
3370 950 9 -8.1999999999999995e-01 8.7694957382059879e+00 1.4492847031783834e+01 2.4906642866349751e+00 0 0 0
7634 2371 4 4.0999999999999998e-01 3.1308651071160654e+00 8.8426567734975166e+00 7.0390641696012555e+00 0 0 0
1533 337 4 4.0999999999999998e-01 5.4189449768507556e+00 1.4132947858321838e+01 2.2230067231344965e+00 0 0 0
7633 2371 9 -8.1999999999999995e-01 3.4771278081032606e+00 9.9155277807781843e+00 6.1560097388259161e+00 0 0 0
5916 1798 4 4.0999999999999998e-01 4.2750852316251056e+00 1.3181897958189962e+01 9.9988971080770686e+00 0 0 0
6240 1906 4 4.0999999999999998e-01 9.5925942464255236e+00 1.3880455941337212e+01 8.5379187699457084e+00 0 0 0
6477 1985 4 4.0999999999999998e-01 7.9081940435316209e+00 9.5155306255316692e+00 6.6308693315599339e+00 0 0 0
3372 950 4 4.0999999999999998e-01 8.9005579729588771e+00 1.3470140748357641e+01 3.4802830656455312e+00 0 0 0
5584 1688 9 -8.1999999999999995e-01 4.5930383843675271e-01 1.1959505001643276e+01 7.2883812876747118e+00 0 0 0
4737 1405 4 4.0999999999999998e-01 4.0894094219081856e+00 1.0089021385328564e+01 2.9697219813178175e+00 0 0 0
3139 873 9 -8.1999999999999995e-01 2.1587234805998405e+00 6.9988009153870419e+00 3.8584919323622091e+00 0 0 0
1897 459 9 -8.1999999999999995e-01 2.8584846127567816e+00 1.4431575946288914e+01 5.5815568323750142e+00 0 0 0
6238 1906 9 -8.1999999999999995e-01 8.9347117239308123e+00 1.3491806813393033e+01 9.7514368215506213e+00 0 0 0
4360 1280 9 -8.1999999999999995e-01 1.8521444714860358e+00 1.1786766403840497e+01 3.1079032867289036e+00 0 0 0
1641 373 4 4.0999999999999998e-01 5.4585553524793031e+00 6.9386311004208521e+00 9.9142771463170316e+00 1 0 0
5586 1688 4 4.0999999999999998e-01 4.8080351419127787e-01 1.0460002167932277e+01 7.2547424100659050e+00 0 0 0
4362 1280 4 4.0999999999999998e-01 2.9640961545352464e+00 1.2671180154784022e+01 3.3184653173753476e+00 0 0 0
1893 457 4 4.0999999999999998e-01 6.9602742451493960e+00 1.1832396462066006e+01 5.2053981319875406e+00 0 0 0
5487 1655 4 4.0999999999999998e-01 8.3255187161579141e+00 7.5043063112032788e+00 8.6744703409465931e+00 0 0 0
3140 873 4 4.0999999999999998e-01 3.3615261499873590e+00 7.5856834662507735e+00 4.3742320578567133e+00 0 0 0
1639 373 9 -8.1999999999999995e-01 4.9115020953940416e+00 8.1784709182830841e+00 9.3951970528217945e+00 1 0 0
6475 1985 9 -8.1999999999999995e-01 7.6304818559109915e+00 1.0488466864579920e+01 7.5921201440610400e+00 0 0 0
7635 2371 4 4.0999999999999998e-01 4.8083310922827796e+00 1.0281868426764389e+01 6.4333111811243286e+00 0 0 0
1898 459 4 4.0999999999999998e-01 4.0557239361033979e+00 1.3850674248518338e+01 6.1413391579494965e+00 0 0 0
1640 373 4 4.0999999999999998e-01 5.9149660934178714e+00 9.1093060736151266e+00 9.6171743702993737e+00 1 0 0
1892 457 4 4.0999999999999998e-01 6.6022104506600856e+00 1.1848819085418626e+01 2.9695723465719768e+00 0 0 0
4735 1405 9 -8.1999999999999995e-01 4.9223413741373321e+00 9.4856820574722018e+00 1.8651841368490925e+00 0 0 0
4361 1280 4 4.0999999999999998e-01 1.4289847773668374e+00 1.1360223673125953e+01 4.4615468741402449e+00 0 0 0
6042 1840 4 4.0999999999999998e-01 2.3307032654828768e+00 -1.1522506526947889e+00 2.7335004289833527e+00 0 0 0
7667 2382 4 4.0999999999999998e-01 9.9363801751004015e+00 -1.0816306905547786e+00 2.7619155594956735e+00 0 0 0
1917 465 4 4.0999999999999998e-01 -8.8091102852743930e-01 4.2578832125334820e+00 -1.5120150406396948e+00 0 0 0
3742 1074 9 -8.1999999999999995e-01 7.0209172348415816e+00 2.4404859975754754e+00 1.3174076394119560e+01 0 0 0
3743 1074 4 4.0999999999999998e-01 7.5388666152562953e+00 2.4980610870146265e+00 1.1811702465319215e+01 0 0 0
1222 234 9 -8.1999999999999995e-01 2.7400106274159293e+00 1.6277550241922369e+00 1.2203225971876845e+01 0 0 0
3744 1074 4 4.0999999999999998e-01 8.1165142999022617e+00 1.8002383932213317e+00 1.3798535784619615e+01 0 0 0
3346 942 9 -8.1999999999999995e-01 4.0281593660706596e+00 4.6696724209914473e+00 1.4390102106338972e+01 0 0 0
3347 942 4 4.0999999999999998e-01 4.3237249908299349e+00 3.4982586848942860e+00 1.3571223812436815e+01 0 0 0
1973 484 4 4.0999999999999998e-01 2.5411953570359445e+00 2.9861016563163312e+00 1.6022454805001729e+01 1 0 0
1972 484 9 -8.1999999999999995e-01 1.4115772761058401e+00 2.2024624265641681e+00 1.6240488566470283e+01 1 0 0
1974 484 4 4.0999999999999998e-01 1.8682491180264800e+00 8.8437396099632160e-01 1.6530434381454157e+01 1 0 0
3348 942 4 4.0999999999999998e-01 5.1580757615266544e+00 5.0206210299079386e+00 1.5147148762969140e+01 0 0 0
5470 1650 9 -8.1999999999999995e-01 8.7540784387539432e+00 8.5200324716031850e-01 1.6753940168585366e+01 0 0 0
5881 1787 9 -8.1999999999999995e-01 5.5768142207798883e+00 2.9659692934829094e+00 1.7592702221568473e+01 0 0 0
973 151 9 -8.1999999999999995e-01 4.7758723712463622e+00 4.2977704420252248e-02 1.5266044117539114e+01 0 0 0
2458 646 9 -8.1999999999999995e-01 8.5266567313853994e+00 5.1571497760250065e+00 1.5857190436619209e+01 0 0 0
5236 1572 9 -8.1999999999999995e-01 2.7146684445749409e+00 5.0614187460649962e+00 1.9018223631754886e+01 1 0 0
5104 1528 9 -8.1999999999999995e-01 2.3184013723365191e+00 6.2984198705706715e+00 1.1127899852161557e+01 1 0 0
5883 1787 4 4.0999999999999998e-01 5.7784082742559368e+00 2.5484197965011917e+00 1.8948929645602245e+01 0 0 0
5882 1787 4 4.0999999999999998e-01 5.4063874973110559e+00 4.3541100129311481e+00 1.7910040548109741e+01 0 0 0
2809 763 9 -8.1999999999999995e-01 -2.0944046812246633e-01 3.8371762351802854e+00 1.3164240351437657e+01 0 0 0
4477 1319 9 -8.1999999999999995e-01 5.8651128479981711e+00 -6.2294745506830984e-01 1.0969387734906833e+01 0 0 0
1882 454 9 -8.1999999999999995e-01 -1.0150793762951930e-01 -6.2244107068050580e-01 1.3691702733971480e+01 0 0 0
1223 234 4 4.0999999999999998e-01 1.2985170310286849e+00 1.3811280306276119e+00 1.1981311837237467e+01 0 0 0
7233 2237 4 4.0999999999999998e-01 6.3692671255154272e+00 5.4096591496091797e+00 1.2474506114985038e+01 0 0 0
2811 763 4 4.0999999999999998e-01 1.1872105581004007e+00 4.0702665850348296e+00 1.3319947618024388e+01 0 0 0
1224 234 4 4.0999999999999998e-01 2.9353286776139229e+00 4.7890795893219879e-01 1.3123506748164720e+01 0 0 0
5472 1650 4 4.0999999999999998e-01 7.4600187048786717e+00 3.7443826865469998e-01 1.7066802389699497e+01 0 0 0
975 151 4 4.0999999999999998e-01 5.4430378745677412e+00 1.3187929627133936e+00 1.5294834749499815e+01 0 0 0
2460 646 4 4.0999999999999998e-01 8.0413886508821371e+00 4.0998774482144364e+00 1.6667541628327012e+01 0 0 0
4479 1319 4 4.0999999999999998e-01 5.6196485160482306e+00 -9.7014737233878989e-02 1.2315816785574395e+01 0 0 0
5106 1528 4 4.0999999999999998e-01 3.3030329089092532e+00 6.3647414297649112e+00 1.2113684974110472e+01 1 0 0
2459 646 4 4.0999999999999998e-01 8.7278911637363645e+00 4.5174338568918015e+00 1.4593412737812235e+01 0 0 0
5396 1625 4 4.0999999999999998e-01 2.3536881311618378e+00 6.4214988548415617e+00 1.6194938140443874e+01 0 0 0
974 151 4 4.0999999999999998e-01 4.5354297387179434e+00 -4.3800676028817237e-01 1.6563625563865294e+01 0 0 0
7448 2309 4 4.0999999999999998e-01 9.7919897988250479e+00 2.4173348586391930e+00 1.8980651717383772e+01 0 0 0
5395 1625 9 -8.1999999999999995e-01 1.1147392090999588e+00 6.7714805750277849e+00 1.5437016351285283e+01 0 0 0
1407 295 4 4.0999999999999998e-01 1.9914620008536235e+00 1.3731292087637582e+01 2.7959393747652395e+01 0 0 0
5237 1572 4 4.0999999999999998e-01 2.9170143730357743e+00 3.5735851128910943e+00 1.8985754730751474e+01 1 0 0
2141 540 4 4.0999999999999998e-01 -4.2952791086254039e-01 4.5897981714481153e+00 1.6787247438782529e+01 1 0 0
2219 566 4 4.0999999999999998e-01 4.0722573752318372e+00 1.0165661492258355e+01 2.7443420979846504e+01 0 0 0
7231 2237 9 -8.1999999999999995e-01 6.7899387887298959e+00 6.7510969219003725e+00 1.2577312982220734e+01 0 0 0
776 85 4 4.0999999999999998e-01 6.6169474785841240e+00 7.0902577200905847e+00 1.6899050157557195e+01 0 0 0
6998 2159 4 4.0999999999999998e-01 -2.5267378940254898e-01 7.0772787273215050e+00 1.8291687279050873e+01 1 0 0
2070 516 4 4.0999999999999998e-01 6.2141259932277877e-02 -2.7158495815728045e-01 1.8527727618247180e+01 1 0 0
4199 1226 4 4.0999999999999998e-01 1.9328151648810291e-01 2.6148727701229224e+00 1.9018181861034197e+01 0 0 0
3740 1073 4 4.0999999999999998e-01 -8.3865935426753890e-01 2.2507624438201370e+00 2.4788696373252563e+01 1 0 0
1740 406 4 4.0999999999999998e-01 7.7582054329155703e+00 4.4563506770441084e+00 2.0162625307327417e+01 0 0 0
2810 763 4 4.0999999999999998e-01 -4.9652549993282336e-01 2.9474979139908077e+00 1.4258418241509396e+01 0 0 0
1884 454 4 4.0999999999999998e-01 -3.7211235550567512e-01 -3.9701019033293650e-01 1.5108526233757956e+01 0 0 0
579 20 3 1.0000000000000001e-01 8.9432797660467465e+00 1.3231020317700487e+01 2.6910672527001850e+01 0 0 0
5397 1625 4 4.0999999999999998e-01 1.4712149974441404e+00 6.9929720168568101e+00 1.4057670439966653e+01 0 0 0
4667 1382 4 4.0999999999999998e-01 6.7245857230651948e-02 1.4234476572737869e+01 1.3486979640732848e+01 0 0 0
6321 1933 4 4.0999999999999998e-01 -5.9496215248861251e-01 1.0476107689832034e+01 1.8403327441687306e+01 1 0 0
564 20 8 -2.9999999999999999e-01 7.7708209701269544e+00 1.1787798958692930e+01 2.5625767542691964e+01 0 0 0
777 85 4 4.0999999999999998e-01 4.8585682168529942e+00 7.1719837873526853e+00 1.8155882599753497e+01 0 0 0
7232 2237 4 4.0999999999999998e-01 8.1842907873399948e+00 6.8145933348897074e+00 1.2785701878360790e+01 0 0 0
7254 2244 4 4.0999999999999998e-01 7.0214200461844785e+00 1.3852046323456458e+01 1.5438312494970305e+01 0 0 0
5186 1555 4 4.0999999999999998e-01 5.6233823031474799e+00 1.3556283077016378e+01 1.8763909130465759e+01 0 0 0
3458 979 4 4.0999999999999998e-01 3.4734693854389840e+00 1.2120267267254830e+01 1.2671819414534223e+01 0 0 0
1409 296 4 4.0999999999999998e-01 2.4074788234094990e+00 1.3894369251849906e+01 1.5742398977962914e+01 0 0 0