LAMMPS (16 Mar 2018)
  using 1 OpenMP thread(s) per MPI task
Reading data file ...
  orthogonal box = (-0.035319 0.039905 -0.039466) to (19.9647 30.0399 162.492)
  2 by 2 by 10 MPI processor grid
  reading atoms ...
  7722 atoms
  reading velocities ...
  7722 velocities
  scanning bonds ...
  3 = max bonds/atom
  scanning angles ...
  6 = max angles/atom
  scanning dihedrals ...
  18 = max dihedrals/atom
  scanning impropers ...
  1 = max impropers/atom
  reading bonds ...
  5361 bonds
  reading angles ...
  3500 angles
  reading dihedrals ...
  1677 dihedrals
  reading impropers ...
  20 impropers
Finding 1-2 1-3 1-4 neighbors ...
  special bond factors lj:   0          0          0         
  special bond factors coul: 0          0          0         
  4 = max # of 1-2 neighbors
  8 = max # of 1-3 neighbors
  18 = max # of 1-4 neighbors
  21 = max # of special neighbors
Neighbor list info ...
  update every 1 steps, delay 0 steps, check yes
  max neighbors/atom: 2000, page size: 100000
  master list distance cutoff = 12
  ghost atom cutoff = 12
  binsize = 6, bins = 4 5 28
  1 neighbor lists, perpetual/occasional/extra = 1 0 0
  (1) pair lj/cut/coul/cut, perpetual
      attributes: half, newton on
      pair build: half/bin/newton
      stencil: half/bin/3d/newton
      bin: standard
Setting up cg style minimization ...
  Unit style    : real
  Current step  : 0
Per MPI rank memory allocation (min/avg/max) = 16.08 | 16.32 | 17.05 Mbytes
Step Temp E_pair E_mol TotEng Press 
       0            0 8.3973083e+14    154137.06 8.3973083e+14 2.3617522e+15 
     106            0    39232.102    38251.052    77483.154    265546.33 
Loop time of 1.50104 on 40 procs for 106 steps with 7722 atoms

95.2% CPU use with 40 MPI tasks x 1 OpenMP threads

Minimization stats:
  Stopping criterion = linesearch alpha is zero
  Energy initial, next-to-last, final = 
     8.39730834848e+14      77483.1537508      77483.1537508
  Force two-norm initial, final = 4.69244e+16 2356.89
  Force max component initial, final = 2.19077e+16 146.222
  Final line search alpha, max atom move = 1.24399e-15 1.81899e-13
  Iterations, force evaluations = 106 932

MPI task timing breakdown:
Section |  min time  |  avg time  |  max time  |%varavg| %total
---------------------------------------------------------------
Pair    | 0.50336    | 1.0728     | 1.3671     |  19.1 | 71.47
Bond    | 0.0042045  | 0.011182   | 0.025658   |   6.0 |  0.74
Neigh   | 0.007123   | 0.0072672  | 0.0073719  |   0.1 |  0.48
Comm    | 0.084765   | 0.32624    | 0.80614    |  28.9 | 21.73
Output  | 0          | 0          | 0          |   0.0 |  0.00
Modify  | 0          | 0          | 0          |   0.0 |  0.00
Other   |            | 0.08358    |            |       |  5.57

Nlocal:    193.05 ave 235 max 115 min
Histogram: 1 2 0 2 0 7 10 8 6 4
Nghost:    3996.22 ave 4423 max 3350 min
Histogram: 2 4 2 2 2 2 11 2 10 3
Neighs:    55851.7 ave 72891 max 23938 min
Histogram: 1 2 1 2 2 4 10 7 7 4

Total # of neighbors = 2234069
Ave neighs/atom = 289.312
Ave special neighs/atom = 2.7138
Neighbor list builds = 4
Dangerous builds = 0
System init for write_data ...
Setting up Verlet run ...
  Unit style    : real
  Current step  : 106
  Time step     : 1
Per MPI rank memory allocation (min/avg/max) = 15.06 | 15.3 | 16.03 Mbytes
Step Time Temp PotEng KinEng TotEng Enthalpy Press Volume Density E_pair E_vdwl E_coul E_long E_tail E_mol E_bond E_angle E_dihed E_impro 
     106            0          300    77483.154    6904.4503    84387.604    466654.99     268782.8    97519.144   0.80001446    39232.102     49137.23   -9905.1282            0            0    38251.052    10632.415    27355.476    263.16084            0 
  500000       499894    297.21158   -41745.313    6840.2753   -34905.038    -35606.27    -370.3119    129842.91    0.6008547    -46820.02   -8728.0044   -38092.015            0            0    5074.7065    2309.5529    2544.0794    221.07423            0 
 1000000       999894     300.2404    -34959.91    6909.9831   -28049.927   -25045.151    1605.4247    128335.35   0.60791298   -40045.184   -8713.9478   -31331.236            0            0    5085.2736    2303.7784    2562.6726    218.82262            0 
 1500000      1499894    298.19733   -39528.687    6862.9621   -32665.725   -33266.064   -320.39693    128478.94   0.60723358   -44678.499   -8855.8317   -35822.668            0            0     5149.812    2384.8062    2548.9523    216.05348            0 
 2000000      1999894    304.67401   -49842.533    7012.0219   -42830.512   -44522.319   -908.26592    127720.88   0.61083766   -54874.611   -8850.2522   -46024.359            0            0    5032.0774    2282.3816     2529.989    219.70683            0 
 2500000      2499894    300.39704    -40856.73    6913.5882   -33943.141   -32350.262    857.07369    127435.01   0.61220792   -46009.444   -8767.8531   -37241.591            0            0     5152.714    2379.9793    2561.7014    211.03323            0 
 3000000      2999894    295.90525   -41341.479    6810.2103   -34531.268   -33762.856    413.58669    127394.89   0.61240075    -46412.31   -8913.5709   -37498.739            0            0    5070.8309    2356.1191    2492.4152     222.2967            0 
 3500000      3499894    302.88946   -45878.067    6970.9507   -38907.116   -40093.496    -637.0365    127697.86    0.6109478   -51041.728   -8975.5293   -42066.199            0            0    5163.6608    2289.1426    2656.2982    218.21994            0 
 4000000      3999894    302.21591   -41429.154    6955.4491   -34473.705     -33144.5    714.31987    127591.94   0.61145495   -46662.851   -9048.7848   -37614.067            0            0    5233.6976    2366.2389    2649.1302    218.32845            0 
 4500000      4499894    299.89917   -44191.905    6902.1297   -37289.775   -38609.815   -708.17346       127812   0.61040217    -49457.12   -9169.6087   -40287.511            0            0    5265.2154    2355.1219    2692.4726    217.62096            0 
 5000000      4999894    302.70085   -40240.233      6966.61   -33273.623   -32540.428    394.53938     127424.6   0.61225796   -45414.587   -9178.7147   -36235.872            0            0    5174.3536    2320.0093    2632.8454     221.4989            0 
 5500000      5499894    299.82473   -37960.678    6900.4165   -31060.261   -30821.732     128.6522    127129.98   0.61367686    -43156.47   -9239.1658   -33917.304            0            0    5195.7923    2357.7365    2628.8139    209.24193            0 
 6000000      5999894    300.66928   -42356.446    6919.8537   -35436.593   -37392.493   -1054.3998     127193.7   0.61336941   -47567.195   -9271.4364   -38295.758            0            0    5210.7485    2336.0272    2662.5549    212.16632            0 
 6500000      6499894    298.65146   -40808.397    6873.4139   -33934.983   -33943.466   -4.5791257    127029.26   0.61416343   -46091.065    -9329.504   -36761.561            0            0    5282.6682    2395.2661    2657.0922    230.30987            0 
 7000000      6999894    302.78564   -42454.108    6968.5613   -35485.547   -37299.948   -978.50517    127143.57   0.61361123   -47658.501   -9236.9998   -38421.501            0            0    5204.3926    2371.3631    2613.6251    219.40435            0 
 7500000      7499894    295.72085   -39071.385    6805.9664   -32265.419   -30511.514    947.76521    126890.56   0.61483474   -44255.147   -9182.5518   -35072.595            0            0    5183.7614    2286.3499    2683.3456    214.06583            0 
 8000000      7999894    299.85358   -36354.934    6901.0805   -29453.854   -27679.722    957.40398    127061.75   0.61400636   -41540.041   -9373.5683   -32166.472            0            0    5185.1061    2338.7946    2623.7091     222.6024            0 
 8500000      8499894    300.40644   -38457.284    6913.8046   -31543.479    -31590.94   -25.674565    126752.72   0.61550338   -43706.702   -9437.3016     -34269.4            0            0     5249.418     2258.888    2767.8417    222.68829            0 
 9000000      8999894    300.87375    -37803.08    6924.5596   -30878.521   -31319.668   -238.85136    126642.64   0.61603836   -43012.105   -9444.5111   -33567.594            0            0    5209.0248    2376.3607    2615.1023    217.56177            0 
 9500000      9499894    300.66629   -38744.535     6919.785    -31824.75   -31001.927    445.43461    126662.07   0.61594387   -43904.327   -9368.4693   -34535.858            0            0    5159.7923    2300.4241    2633.1535    226.21469            0 
10000000      9999894     301.4992   -38909.896    6938.9541   -31970.942   -32384.717   -223.95467    126686.08   0.61582712   -44114.525   -9462.1986   -34652.327            0            0    5204.6295    2261.9997    2712.8209    229.80898            0 
10500000     10499894    302.05205   -42527.687    6951.6778    -35576.01   -37213.045    -885.0589     126826.5    0.6151453   -47800.449   -9458.6425   -38341.806            0            0    5272.7611    2388.6184    2652.0821    232.06053            0 
11000000     10999894    299.71398   -40393.167    6897.8675     -33495.3   -33057.152    237.07785    126722.44   0.61565045   -45668.116   -9433.0205   -36235.095            0            0    5274.9485    2316.7923    2743.0218    215.13448            0 
11500000     11499894    304.55317   -43511.737    7009.2407   -36502.496   -37976.854   -798.13503    126663.23   0.61593821    -48770.94   -9482.1156   -39288.824            0            0    5259.2028    2322.3056    2713.6508    223.24646            0 
12000000     11999894    306.95476   -35213.953     7064.513    -28149.44   -26300.019    1003.2648    126399.17     0.617225   -40436.202   -9448.2713   -30987.931            0            0    5222.2494    2324.5506    2669.6984     228.0005            0 
12500000     12499894    297.42516   -30276.217    6845.1909   -23431.026   -21485.194    1055.0167    126464.97   0.61690384    -35509.28    -9556.229   -25953.051            0            0    5233.0626     2377.349    2630.8787    224.83491            0 
13000000     12999894    298.43667   -32712.774    6868.4705   -25844.303   -25211.858    342.81477     126499.1   0.61673741   -37829.465   -9560.0247    -28269.44            0            0    5116.6911    2320.4635    2572.2401    223.98742            0 
13500000     13499894    301.42226   -30507.523    6937.1834    -23570.34   -22967.406    326.73829     126530.1   0.61658628   -35697.015   -9754.2863   -25942.729            0            0    5189.4919    2351.3109    2614.1867    223.99432            0 
14000000     13999894    298.09369   -27180.159    6860.5769   -20319.582   -18380.346    1052.5755    126328.51    0.6175702   -32312.119    -9728.278   -22583.841            0            0      5131.96    2405.3772    2504.6471    221.93576            0 
14500000     14499894    306.62293   -28468.606    7056.8759    -21411.73   -20711.637    380.21887     126254.3    0.6179332   -33629.685   -9896.9021   -23732.783            0            0    5161.0791    2344.5214    2594.8299    221.72784            0 
15000000     14999894    299.58063   -36657.862    6894.7987   -29763.064   -30413.895   -353.40926    126274.22   0.61783573   -41735.919    -9731.892   -32004.027            0            0    5078.0565    2322.3795    2539.6872    215.98986            0 
15500000     15499894    297.04546   -33777.084     6836.452   -26940.632   -27436.632   -269.14813    126361.31   0.61740993   -38889.439   -9758.2557   -29131.183            0            0     5112.355    2394.0599    2497.4836    220.81151            0 
16000000     15999894    299.11777   -30855.817     6884.146   -23971.671   -23317.914    355.38689    126136.03   0.61851259   -36004.236   -9707.2762    -26296.96            0            0    5148.4196    2336.2663    2596.5826    215.57066            0 
16500000     16499894    301.32415   -33545.058    6934.9255   -26610.132   -27310.124   -380.16017    126255.59    0.6179269   -38684.958   -9763.5376    -28921.42            0            0       5139.9    2320.4443    2604.9036     214.5521            0 
17000000     16999894    293.97132   -32873.561    6765.7011    -26107.86   -26362.167   -138.12169    126247.09   0.61796849   -37970.129   -9786.9628   -28183.166            0            0    5096.5681    2263.2685    2615.0554    218.24429            0 
17500000     17499894    302.60314   -37389.944    6964.3611   -30425.583   -32561.707   -1159.3193    126341.93   0.61750464   -42512.894   -9744.5146   -32768.379            0            0    5122.9495    2362.3221     2554.013    206.61441            0 
18000000     17999894    300.86409    -36666.27    6924.3372   -29741.933   -29952.989   -114.65318    126222.47   0.61808905    -41774.54   -9709.9998    -32064.54            0            0    5108.2705    2330.8722    2558.9619    218.43634            0 
18500000     18499894    299.29023   -36728.124    6888.1151   -29840.009   -32360.332   -1368.0332    126323.35   0.61759542   -41789.164   -9730.1106   -32059.053            0            0    5061.0398    2313.6925     2531.479    215.86832            0 
19000000     18999894    297.15375    -38034.83    6838.9444   -31195.886   -32405.936   -657.66822    126159.74   0.61839639   -43077.828   -9750.2196   -33327.609            0            0    5042.9979    2349.3051    2479.3183    214.37455            0 
19500000     19499894     300.4369   -33157.479    6914.5056   -26242.974   -26037.564    111.70524    126087.48   0.61875079   -38263.111   -9756.3205    -28506.79            0            0    5105.6313    2308.0998    2582.1299    215.40155            0 
20000000     19999894    302.01764   -34334.887    6950.8859   -27384.001   -28369.724   -535.79971    126146.97   0.61845896   -39468.522    -9731.925   -29736.597            0            0    5133.6357    2337.7934    2582.4645    213.37782            0 
20500000     20499894    300.16104   -29952.618    6908.1567   -23044.461   -22028.073    552.67587    126099.39   0.61869231    -35143.92   -9733.2477   -25410.672            0            0    5191.3022    2373.5339    2594.4593    223.30899            0 
21000000     20999894    301.85323   -34267.851    6947.1022   -27320.749    -28937.84   -879.83468    126025.25   0.61905631   -39385.626   -9768.5277   -29617.098            0            0    5117.7749    2398.3627    2496.5055    222.90658            0 
21500000     21499894    299.13546   -33422.437     6884.553   -26537.884   -26840.031    -164.4063    126015.41   0.61910466   -38504.035   -9770.1587   -28733.876            0            0    5081.5976    2347.8667    2518.1748    215.55608            0 
22000000     21999894    296.51429   -32588.574    6824.2273   -25764.347   -25625.242    75.604062    126160.27   0.61839379   -37730.612   -9698.1459   -28032.466            0            0    5142.0375    2421.2068    2497.5682    223.26247            0 
22500000     22499894    306.83363   -37249.081    7061.7253   -30187.356   -30222.865    -19.31059    126085.01    0.6187629   -42425.399   -9774.3576   -32651.041            0            0    5176.3177    2323.0858    2632.4105    220.82141            0 
23000000     22999894    306.12004   -26692.318     7045.302   -19647.016   -17225.804    1319.8046    125790.33   0.62021241    -31915.18   -9690.2173   -22224.963            0            0    5222.8617    2425.4591    2586.5657    210.83695            0 
23500000     23499894    295.55777   -32708.994    6802.2131   -25906.781   -23861.995    1113.3591    125932.22   0.61951362    -37798.04   -9778.9107   -28019.129            0            0    5089.0455    2344.5234    2531.6414    212.88081            0 
24000000     23999894    300.98049   -37823.937    6927.0161    -30896.92   -32808.853   -1038.0946    126287.35   0.61777149   -42849.286   -9708.0662    -33141.22            0            0    5025.3496    2307.1506    2499.0636    219.13542            0 
24500000     24499894    300.74749   -34213.803    6921.6536   -27292.149   -26916.015    204.43449    126157.38   0.61840792   -39286.426   -9801.2483   -29485.178            0            0    5072.6234    2371.0499     2476.518    225.05548            0 
25000000     24999894    306.58928    -39251.08    7056.1016   -32194.978    -34250.21   -1117.0492    126157.35   0.61840809   -44388.316   -9779.6998   -34608.617            0            0    5137.2365    2364.2786    2548.2258    224.73207            0 
25500000     25499894    300.69525   -31035.484    6920.4514   -24115.033   -24460.483   -187.96433    126018.26   0.61909062   -36164.042   -9736.2751   -26427.767            0            0    5128.5581    2329.9716    2582.1598    216.42659            0 
26000000     25999894    298.69839   -31885.445     6874.494   -25010.951   -24256.906    410.73047    125882.27   0.61975944   -37028.387   -9724.4129   -27303.974            0            0    5142.9423    2353.2775    2571.8075    217.85721            0 
26500000     26499894    296.02511    -32935.63     6812.969   -26122.661   -26474.616   -191.59705     125956.8   0.61939272   -38014.253   -9771.1483   -28243.105            0            0    5078.6228    2330.8238    2534.5693    213.22969            0 
27000000     26999894    303.73851   -31828.887    6990.4915   -24838.395   -24497.357    185.68159    125938.67   0.61948187   -37018.363     -9812.63   -27205.733            0            0    5189.4764    2378.5052    2587.0044     223.9668            0 
27500000     27499894    298.35176   -31576.981    6866.5163   -24710.464    -25045.14   -182.27857    125896.18   0.61969094   -36784.846   -9756.4378   -27028.408            0            0    5207.8653    2310.5975    2676.0726    221.19527            0 
28000000     27999894    299.02462     -30749.6    6882.0021   -23867.598   -23532.565    182.79297    125676.13     0.620776   -35863.035   -9791.9462   -26071.089            0            0    5113.4348    2303.1182    2588.2981    222.01848            0 
28500000     28499894    300.69755   -27100.975    6920.5043   -20180.471   -18000.031    1188.7632    125768.76   0.62031879   -32252.038   -9664.2912   -22587.746            0            0    5151.0625    2376.1435    2558.5722     216.3468            0 
29000000     28999894    300.97102   -34008.202    6926.7981   -27081.404    -25975.73    603.15809     125695.6   0.62067986   -39094.417   -9827.8993   -29266.518            0            0    5086.2151     2259.912    2601.4214    224.88162            0 
29500000     29499894    304.51134   -34348.341    7008.2781   -27340.063   -27401.019   -33.240788    125738.88   0.62046619   -39477.006   -9726.5329   -29750.473            0            0    5128.6644    2353.3411    2555.9809    219.34238            0 
30000000     29999894    300.04169   -34283.966    6905.4098   -27378.556   -26449.394    506.91017    125685.36   0.62073039   -39437.891   -9863.1295   -29574.761            0            0    5153.9252    2375.4776    2560.2041    218.24361            0 
30500000     30499894    296.17509   -28712.527    6816.4207   -21896.107   -20187.426    931.94599    125717.05   0.62057394   -33872.362   -9734.5843   -24137.778            0            0     5159.835    2342.1948    2593.2329    224.40734            0 
31000000     30999894    296.08943   -35018.714    6814.4492   -28204.265   -29566.287   -741.94483    125874.13   0.61979952   -40087.587   -9783.7704   -30303.816            0            0    5068.8721    2359.6326    2485.7405    223.49899            0 
31500000     31499894    302.24711   -29985.624    6956.1673   -23029.457   -21351.794    916.46853    125519.49   0.62155068   -35234.301   -9780.3724   -25453.929            0            0    5248.6775    2411.3664    2618.5768    218.73435            0 
32000000     31999894     295.3103   -30989.773    6796.5176   -24193.256   -22790.536    765.03095    125723.37   0.62054274   -36148.876   -9768.5435   -26380.333            0            0    5159.1028    2312.0349    2619.7233    227.34463            0 
32500000     32499894    306.32775   -32351.685    7050.0825   -25301.602   -25664.127   -197.54463    125833.58   0.61999923   -37487.096   -9858.1808   -27628.915            0            0    5135.4116    2380.0173    2537.5452    217.84911            0 
33000000     32999894    305.23794   -33200.361    7025.0005    -26175.36   -26422.646   -134.85913    125731.07   0.62050473   -38370.755   -9880.9907   -28489.764            0            0    5170.3947    2351.9748    2596.4166    222.00335            0 
33500000     33499894    299.85279   -30019.759    6901.0622   -23118.697   -22503.209     336.1017    125566.16   0.62131966   -35241.395   -9847.0929   -25394.302            0            0    5221.6358    2370.8255    2636.7676    214.04273            0 
34000000     33999894    300.34201   -26720.615    6912.3216   -19808.294     -16813.9    1638.2138    125332.13   0.62247986   -31835.585   -9763.1114   -22072.473            0            0    5114.9692    2367.4382    2526.1588     221.3722            0 
34500000     34499894    297.33719   -32595.084    6843.1663   -25751.918   -25227.213    286.87814    125412.86   0.62207915   -37766.012   -9834.1065   -27931.905            0            0    5170.9275    2387.5783    2571.5399    211.80923            0 
35000000     34999894    303.29924   -32040.205    6980.3817   -25059.823   -24889.891    92.770789     125599.4   0.62115523    -37091.92   -9846.2254   -27245.695            0            0    5051.7155    2302.2631    2532.1354    217.31698            0 
35500000     35499894    304.33284   -39666.366    7004.1699   -32662.196   -35403.946   -1498.1993    125482.25   0.62173514   -44819.189    -9857.379    -34961.81            0            0    5152.8228    2374.4829    2560.8977    217.44219            0 
36000000     35999894    303.40566   -24671.868    6982.8311   -17689.037    -14318.01    1846.2083    125200.38    0.6231349   -29770.965   -9765.6219   -20005.343            0            0    5099.0972    2379.4212    2499.8954    219.78058            0 
36500000     36499894    304.63724   -31005.582    7011.1757   -23994.407   -23048.391    517.44725    125359.26   0.62234513   -36117.065   -9797.4141   -26319.651            0            0    5111.4827    2326.5695    2571.9855    212.92765            0 
37000000     36999894    292.72826   -32275.942    6737.0923    -25538.85   -26692.286   -630.13392    125511.85   0.62158853   -37560.517   -9907.3701   -27653.147            0            0     5284.575    2395.9235    2665.1183    223.53309            0 
37500000     37499894    308.35344   -30761.315    7096.7033   -23664.611   -21996.991    911.44595    125455.66   0.62186691   -35986.841   -9820.4645   -26166.376            0            0    5225.5263    2354.4906    2650.5028    220.53282            0 
38000000     37999894    297.89309   -32954.639    6855.9601   -26098.679   -24846.838    683.62774    125560.67   0.62134686   -38067.414   -9913.7978   -28153.616            0            0    5112.7753    2326.7163    2575.3239    210.73508            0 
38500000     38499894    297.90309   -31399.461    6856.1902   -24543.271   -23445.047    600.30107    125442.82   0.62193056   -36533.978   -9832.2234   -26701.754            0            0    5134.5166    2340.0124    2574.6408    219.86339            0 
39000000     38999894    307.23813   -36553.011    7071.0347   -29481.976   -31015.995    -839.2507    125332.34   0.62247881   -41740.692   -9837.3231   -31903.369            0            0    5187.6811    2403.6501    2565.9017    218.12929            0 
39500000     39499894    298.82911    -26728.87    6877.5026   -19851.367   -18074.024    972.41512    125326.73   0.62250667   -31890.969   -9921.8581   -21969.111            0            0    5162.0986    2373.0397    2571.9035     217.1554            0 
40000000     39999894    303.55768   -34364.606    6986.3297   -27378.276   -27578.785   -109.69989    125329.04   0.62249518   -39545.159   -9859.6851   -29685.474            0            0    5180.5534    2389.6823    2571.8614    219.00969            0 
40500000     40499894    295.90288   -32031.621    6810.1557   -25221.466   -25429.825   -114.12718    125183.95   0.62321669   -37139.557   -9838.5195   -27301.037            0            0    5107.9356    2341.0392    2546.2848     220.6116            0 
41000000     40999894    300.62045   -35289.324    6918.7298   -28370.594   -29603.236   -674.35167    125335.63   0.62246248    -40399.39   -9925.0671   -30474.323            0            0    5110.0657    2378.1705    2520.1391    211.75602            0 
41500000     41499894    300.05813   -33673.511    6905.7882   -26767.723   -26125.861    351.26193    125295.27   0.62266297   -38724.369   -9808.6512   -28915.718            0            0    5050.8576    2286.8632    2551.6248    212.36959            0 
42000000     41999894    297.84456    -28093.09    6854.8433   -21238.247   -19288.892    1067.3056    125235.15    0.6229619   -33264.754    -9875.471   -23389.283            0            0    5171.6642    2344.8905    2616.3397    210.43402            0 
42500000     42499894     298.4208   -30325.509    6868.1053   -23457.404   -22728.495    398.82344    125318.98   0.62254519   -35504.204   -9868.9693   -25635.234            0            0    5178.6943    2345.0688    2617.0738     216.5516            0 
43000000     42999894     301.2001   -30133.692    6932.0705   -23201.621   -22541.675    361.65374    125123.79   0.62351633   -35192.161   -9947.3578   -25244.803            0            0     5058.469    2351.5405    2492.4531     214.4754            0 
43500000     43499894    298.95811   -32759.595    6880.4713   -25879.123   -24918.363    526.04312     125232.7   0.62297408   -37788.496   -9758.1143   -28030.382            0            0    5028.9014    2284.4658     2529.325    215.11052            0 
44000000     43999894    300.57574   -32811.961    6917.7009    -25894.26   -26066.297   -94.033907    125447.28   0.62190847   -38026.279   -9850.3536   -28175.925            0            0    5214.3181    2386.1577    2613.6185    214.54194            0 
44500000     44499894    301.45959   -34450.265    6938.0425   -27512.222   -27985.871   -259.10944     125342.1   0.62243032   -39583.167   -9839.8132   -29743.354            0            0    5132.9028     2352.878    2569.1943    210.83042            0 
45000000     44999894    299.61399   -30699.073    6895.5665   -23803.507   -23465.872    184.99584    125143.87   0.62341628   -35800.233   -9939.1387   -25861.094            0            0    5101.1591    2361.6429    2527.1832     212.3331            0 
45500000     45499894    303.61136    -32748.97    6987.5652   -25761.404   -25490.212    148.57609    125156.14   0.62335517   -37941.646   -9900.6775   -28040.969            0            0    5192.6769    2387.8843    2595.2264    209.56613            0 
46000000     45999894    296.68367   -36674.447    6828.1254   -29846.321   -30198.881   -193.05309    125221.76   0.62302852   -41835.186   -9859.3504   -31975.835            0            0    5160.7388    2299.2231    2643.5498    217.96588            0 
46500000     46499894    302.91042   -29133.905    6971.4332   -22162.472   -21334.163    454.39663    124991.66   0.62417545   -34299.264    -9909.811   -24389.453            0            0    5165.3589    2389.8017    2558.1255    217.43165            0 
47000000     46999894    301.15028       -32457    6930.9239   -25526.076   -26000.454   -259.50961    125341.44   0.62243361   -37574.004   -9981.0583   -27592.945            0            0    5117.0035    2331.3198    2569.0794     216.6043            0 
47500000     47499894    301.96253   -37812.789    6949.6177   -30863.171   -34323.785   -1895.3631    125194.38   0.62316476   -43051.621    -9866.363   -33185.258            0            0    5238.8329    2436.1761    2583.3348    219.32197            0 
48000000     47999894    300.25429   -31686.321    6910.3027   -24776.018   -24877.759   -55.721617    125196.73   0.62315305   -36818.617   -9890.5589   -26928.058            0            0    5132.2957    2370.6456     2547.399    214.25116            0 
48500000     48499894    296.76911   -27640.364    6830.0918   -20810.272   -20017.157    434.54228    125149.24   0.62338952   -32736.007   -9808.4479   -22927.559            0            0    5095.6429     2338.037    2535.7454    221.86058            0 
49000000     48999894    303.47359   -39409.781    6984.3943   -32425.387   -35207.505    -1522.795    125273.19   0.62277274    -44558.16    -9818.939   -34739.221            0            0    5148.3789    2430.7764    2504.9861    212.61639            0 
49500000     49499894    300.24775   -32486.596    6910.1522   -25576.444   -25458.242    64.780472    125113.33   0.62356845   -37687.128   -9867.6916   -27819.437            0            0    5200.5317    2328.8961    2653.1242    218.51137            0 
50000000     49999894    300.52102    -33976.36    6916.4415   -27059.919   -27355.619   -162.01292    125148.46   0.62339341   -39138.975    -9868.114   -29270.861            0            0    5162.6149    2333.9403    2614.3463    214.32832            0 
50000106     50000000    305.92561   -37065.814    7040.8273   -30024.986   -31009.167   -539.53546     125077.5   0.62374709   -42209.377   -9895.1129   -32314.264            0            0    5143.5634    2314.7349    2609.9065    218.92206            0 
Loop time of 51999.2 on 40 procs for 50000000 steps with 7722 atoms

Performance: 83.078 ns/day, 0.289 hours/ns, 961.554 timesteps/s
98.1% CPU use with 40 MPI tasks x 1 OpenMP threads

MPI task timing breakdown:
Section |  min time  |  avg time  |  max time  |%varavg| %total
---------------------------------------------------------------
Pair    | 29541      | 34052      | 37284      | 761.0 | 65.49
Bond    | 463.8      | 942.17     | 2690.2     |1965.8 |  1.81
Neigh   | 4156.2     | 4174.7     | 4187.4     |  11.5 |  8.03
Comm    | 5897.2     | 8726.9     | 12272      |1454.2 | 16.78
Output  | 0.60165    | 0.60196    | 0.61293    |   0.2 |  0.00
Modify  | 2206       | 3864       | 5268       |1881.4 |  7.43
Other   |            | 238.6      |            |       |  0.46

Nlocal:    193.05 ave 216 max 166 min
Histogram: 1 0 1 6 7 9 10 2 1 3
Nghost:    3424.97 ave 3574 max 3279 min
Histogram: 4 3 3 4 4 8 3 7 1 3
Neighs:    42836.3 ave 49435 max 33211 min
Histogram: 1 0 1 4 6 5 12 6 3 2

Total # of neighbors = 1713453
Ave neighs/atom = 221.892
Ave special neighs/atom = 2.7138
Neighbor list builds = 2684430
Dangerous builds = 34
System init for write_data ...
Total wall time: 14:26:40
