LAMMPS data file via write_data, version 16 Mar 2018, timestep = 106

7722 atoms
10 atom types
5361 bonds
13 bond types
3500 angles
31 angle types
1677 dihedrals
51 dihedral types
20 impropers
1 improper types

-3.5319000000000003e-02 1.9964680999999999e+01 xlo xhi
3.9905000000000003e-02 3.0039905000000001e+01 ylo yhi
-3.9466000000000001e-02 1.6249243999999999e+02 zlo zhi

Masses

1 12.0112
2 12.0112
3 1.00797
4 1.00797
5 1.00797
6 1.00797
7 14.0067
8 15.9994
9 15.9994
10 15.9994

Pair Coeffs # lj/cut/coul/cut

1 0.038 2.44997
2 0.228 2.85978
3 0.039 3.87541
4 0.228 2.85978
5 0.167 3.50123
6 0.038 2.44997
7 0.039 3.87541
8 0.038 2.44997
9 0.155416 3.16552
10 0.038 2.44997

Bond Coeffs # harmonic

1 540.634 0.96
2 322.716 1.526
3 356.599 1.47
4 457.459 1.026
5 273.2 1.425
6 340.618 1.105
7 322.716 1.526
8 384 1.42
9 540.634 0.96
10 384 1.42
11 273.2 1.425
12 322.716 1.526
13 340.618 1.105

Angle Coeffs # harmonic

1 58.5 106
2 46.6 110.5
3 44.4 110
4 58.5 106
5 70 109.5
6 46.6 110.5
7 46.6 110.5
8 70 109.5
9 50 104.5
10 70 109.5
11 70 109.5
12 57 109.5
13 70 109.5
14 44.4 110
15 57 109.5
16 60 109.5
17 46.6 110.5
18 70 109.5
19 44.4 110
20 50 109.5
21 57.3 109.5
22 41.6 110
23 36 105.5
24 70 109.5
25 44.4 110
26 57 109.5
27 39.5 106.4
28 60 109.5
29 70 109.5
30 70 109.5
31 57 109.5

Dihedral Coeffs # harmonic

1 0.13 1 3
2 0.1581 1 3
3 0.1581 1 3
4 0.13 1 3
5 0.1581 1 3
6 0.1581 1 3
7 0.1581 1 3
8 0.1581 1 3
9 0.13 1 3
10 0.13 1 3
11 0.13 1 3
12 0.13 1 3
13 0.13 1 3
14 0.13 1 3
15 0.1581 1 3
16 0.1581 1 3
17 0.1581 1 3
18 0.1581 1 3
19 0.1581 1 3
20 0.1581 1 3
21 0.1581 1 3
22 0.1581 1 3
23 0.13 1 3
24 0.1581 1 3
25 0.1581 1 3
26 0.1581 1 3
27 0.1581 1 3
28 0.1581 1 3
29 0.1581 1 3
30 0.1581 1 3
31 0.1581 1 3
32 0.1581 1 3
33 0.1581 1 3
34 0.1581 1 3
35 0.1581 1 3
36 0.1333 1 3
37 0.1333 1 3
38 0.13 1 3
39 0.13 1 3
40 0.1581 1 3
41 0.1581 1 3
42 0.1581 1 3
43 0.1581 1 3
44 0.13 1 3
45 0.13 1 3
46 0.13 1 3
47 0.1581 1 3
48 0.1581 1 3
49 0.1581 1 3
50 0.1581 1 3
51 0.1581 1 3

Improper Coeffs # cvff

1 0 1 0

Atoms # full

5245 1575 9 -8.1999999999999995e-01 6.8560803488221493e+00 1.0137120961418120e+01 8.7059958925305048e-02 0 0 1
830 103 4 4.0999999999999998e-01 9.8425788720256135e-01 8.8994436690871859e-01 5.1726278933769354e+00 0 0 0
831 103 4 4.0999999999999998e-01 1.3074521143423340e-02 1.9054187339395894e+00 6.6158371301548744e+00 0 0 0
1153 211 9 -8.1999999999999995e-01 1.3025748950933536e+00 6.6399441050390564e+00 4.2165529450721593e+00 0 0 0
1154 211 4 4.0999999999999998e-01 7.3899605699104387e-01 5.5027134050983184e+00 3.7455386963483441e+00 0 0 0
1432 304 9 -8.1999999999999995e-01 5.5082495125201927e+00 3.3847421009489445e+00 5.8077515083195577e+00 0 0 0
1433 304 4 4.0999999999999998e-01 4.8245719575967421e+00 4.3294717122151480e+00 6.5678576983380061e+00 0 0 0
1434 304 4 4.0999999999999998e-01 6.2212414789100974e+00 4.3002337430312849e+00 5.0491593356448057e+00 0 0 0
1537 339 9 -8.1999999999999995e-01 3.0862031948783790e+00 5.5672683482346335e+00 6.0549563049487498e-01 0 0 0
1538 339 4 4.0999999999999998e-01 2.3304831690617851e+00 6.1462141030534578e+00 1.5618426251616069e+00 0 0 0
1915 465 9 -8.1999999999999995e-01 3.8085537706318928e+00 1.8335654616369907e+00 3.1968609215020233e-01 0 0 0
1917 465 4 4.0999999999999998e-01 3.9673853304194959e+00 3.2283532039405238e+00 3.4245531609164864e-01 0 0 0
2890 790 9 -8.1999999999999995e-01 2.4114828101449288e+00 1.7632956079095641e+00 3.3877596246984440e+00 0 0 0
2891 790 4 4.0999999999999998e-01 3.2054942362170848e+00 2.5464938409608702e+00 2.6280593750017034e+00 0 0 0
2892 790 4 4.0999999999999998e-01 1.9698507645813184e+00 2.9351865214356909e+00 4.0134168197240090e+00 0 0 0
3079 853 9 -8.1999999999999995e-01 8.9119960801484925e+00 4.3684704037409556e+00 1.8312929370745984e-01 0 0 0
3080 853 4 4.0999999999999998e-01 8.4105942735031469e+00 3.5207777419077879e+00 1.1439108102732412e+00 0 0 0
3196 892 9 -8.1999999999999995e-01 9.5541609499486437e+00 4.1876926961017213e+00 7.0108578642027188e+00 0 0 0
3197 892 4 4.0999999999999998e-01 8.8843731906632861e+00 3.0607420934339875e+00 6.6853624558578169e+00 0 0 0
3198 892 4 4.0999999999999998e-01 8.4773547329496015e+00 4.8671304206249593e+00 6.5520530528889882e+00 0 0 0
3601 1027 9 -8.1999999999999995e-01 7.5187444136622625e+00 9.9961292441355865e-01 1.1307458588271180e+00 0 0 0
3602 1027 4 4.0999999999999998e-01 8.2510718877659972e+00 1.4196379439244218e+00 1.2931470948716609e-01 0 0 0
3603 1027 4 4.0999999999999998e-01 6.4024681760293811e+00 1.7238995581080057e+00 6.5094962280466195e-01 0 0 0
4222 1234 9 -8.1999999999999995e-01 7.4168938711090027e-01 5.3717099655661826e+00 6.4334501501883610e+00 0 0 0
4137 1205 4 4.0999999999999998e-01 7.8626231779184863e+00 1.0727856160054262e+01 1.6078687349621596e+01 0 0 0
4224 1234 4 4.0999999999999998e-01 1.4306431041935885e-01 6.1164492118141522e+00 7.4489646962136060e+00 0 0 0
4684 1388 9 -8.1999999999999995e-01 9.2751858739867217e+00 7.2493585898347535e+00 1.0645418991901374e-01 0 0 0
4686 1388 4 4.0999999999999998e-01 9.2582890288696902e+00 6.9056470576653064e+00 1.4220873624427071e+00 0 0 0
5098 1526 9 -8.1999999999999995e-01 6.5995358511770164e+00 7.3149610367303497e+00 7.0019022124442714e+00 0 0 0
5099 1526 4 4.0999999999999998e-01 6.4603518918545717e+00 6.0310355849932469e+00 6.8624544942425088e+00 0 0 0
5100 1526 4 4.0999999999999998e-01 5.6032057859460895e+00 7.5788113735733029e+00 6.1296689527340522e+00 0 0 0
5307 1595 4 4.0999999999999998e-01 6.0047958012525138e-01 4.4460827461680781e+00 4.4054747684216850e-01 1 0 1
5476 1652 9 -8.1999999999999995e-01 4.7784487937849809e+00 5.6206212723881936e+00 3.0148082311984901e+00 0 0 0
5477 1652 4 4.0999999999999998e-01 3.6190830147660198e+00 5.3785132633767869e+00 3.7566606069551609e+00 0 0 0
5478 1652 4 4.0999999999999998e-01 4.6880260182454476e+00 6.9001954651212367e+00 2.4027035146071634e+00 0 0 0
5629 1703 9 -8.1999999999999995e-01 7.4990291649361192e+00 1.1261881602998054e+00 5.6815693022826483e+00 0 0 0
5630 1703 4 4.0999999999999998e-01 6.8773424783930848e+00 1.3872016624500527e+00 6.8927297910753262e+00 0 0 0
5631 1703 4 4.0999999999999998e-01 8.7976112679544194e+00 7.6372066583842269e-01 5.6943101954271329e+00 0 0 0
6040 1840 9 -8.1999999999999995e-01 2.7799854544872260e+00 1.4220394464727033e+00 6.8701194708412592e+00 0 0 0
6041 1840 4 4.0999999999999998e-01 2.0250445919894444e+00 1.5839327693166514e+00 8.0106635742661556e+00 0 0 0
6042 1840 4 4.0999999999999998e-01 3.1646471478270337e+00 2.6650462515853448e+00 6.5156486734184833e+00 0 0 0
6772 2084 9 -8.1999999999999995e-01 8.3276265655872148e+00 5.1409722627149748e+00 4.0473708414867646e+00 0 0 0
6773 2084 4 4.0999999999999998e-01 8.8577890707073212e+00 3.8515566386265712e+00 4.0780017929322536e+00 0 0 0
6774 2084 4 4.0999999999999998e-01 8.1799844761259131e+00 5.2572204562977012e+00 2.6950243207526743e+00 0 0 0
6946 2142 9 -8.1999999999999995e-01 6.5059565784689628e+00 3.1432164724372122e+00 2.7894452947707631e+00 0 0 0
6947 2142 4 4.0999999999999998e-01 5.5252425160028960e+00 2.1998189509172574e+00 2.9998833043282938e+00 0 0 0
6948 2142 4 4.0999999999999998e-01 6.9308152283152991e+00 2.2064329969090024e+00 3.6657187744373747e+00 0 0 0
6740 2073 4 4.0999999999999998e-01 9.1773060728380198e+00 1.0107842233770548e+01 9.3685838449266026e+00 0 0 0
7460 2313 4 4.0999999999999998e-01 6.1231570034573413e-01 7.4803642590966328e+00 1.3046626710603029e-01 0 0 0
670 50 9 -8.1999999999999995e-01 3.8334876898471246e+00 8.6603231364817486e+00 4.6334972462061961e+00 0 0 0
671 50 4 4.0999999999999998e-01 2.9128833317360190e+00 7.9804940187472022e+00 5.4456138897828650e+00 0 0 0
672 50 4 4.0999999999999998e-01 3.8735149547362928e+00 9.2399105591030413e+00 5.8750783193580309e+00 0 0 0
823 101 9 -8.1999999999999995e-01 4.8337638058817429e+00 1.2003604863754530e+01 1.2490104014187937e+00 0 0 0
824 101 4 4.0999999999999998e-01 3.8774660879964435e+00 1.1390821406666939e+01 5.3118360808001708e-01 0 0 0
825 101 4 4.0999999999999998e-01 3.8272493170700392e+00 1.2497053115556300e+01 2.0486372310805563e+00 0 0 0
1155 211 4 4.0999999999999998e-01 1.3725111492045916e+00 7.4908627212834045e+00 3.2195136715297408e+00 0 0 0
1573 351 9 -8.1999999999999995e-01 1.1749796427169044e+00 1.2122993273563182e+01 1.3280263136039463e+00 0 0 0
6739 2073 9 -8.1999999999999995e-01 7.7975538107123441e+00 1.0075884302247244e+01 9.4881641134966817e+00 0 0 0
1575 351 4 4.0999999999999998e-01 1.0868117163587572e+00 1.1242815685959313e+01 2.6702932000413998e-01 0 0 0
1792 424 9 -8.1999999999999995e-01 4.2542376624095093e+00 1.4902867840785621e+01 2.9666661337228457e+00 0 0 0
1793 424 4 4.0999999999999998e-01 5.3069127597003263e+00 1.4462714613116136e+01 2.2156687385486529e+00 0 0 0
2467 649 9 -8.1999999999999995e-01 8.6947928287609457e+00 1.2133812049972875e+01 1.7402865229706019e+00 0 0 0
2468 649 4 4.0999999999999998e-01 7.3778320343807220e+00 1.1767462951480233e+01 1.9704963137242746e+00 0 0 0
2469 649 4 4.0999999999999998e-01 9.4987015840948104e+00 1.1058666545270620e+01 2.0223634306961920e+00 0 0 0
2704 728 9 -8.1999999999999995e-01 7.0491224837149797e+00 7.9864487130659203e+00 2.4929235346468137e+00 0 0 0
2705 728 4 4.0999999999999998e-01 7.9359889281442015e+00 7.5895075601300803e+00 3.4782238299679569e+00 0 0 0
2706 728 4 4.0999999999999998e-01 6.5413116915713223e+00 9.1301804347942213e+00 3.1397954434649735e+00 0 0 0
3301 927 9 -8.1999999999999995e-01 1.3733714528594079e+00 1.3763232780207277e+01 6.8446883300262087e+00 0 0 0
3302 927 4 4.0999999999999998e-01 4.2131152618526285e-01 1.2834410616633317e+01 7.1409779077461257e+00 0 0 0
3303 927 4 4.0999999999999998e-01 1.5496482451103362e+00 1.2865018320387216e+01 7.7721089399044461e+00 0 0 0
4361 1280 4 4.0999999999999998e-01 5.3666879710438140e+00 1.3932043794900645e+01 6.4194182913908344e+00 0 0 0
4685 1388 4 4.0999999999999998e-01 8.8122486715372652e+00 8.4981771998941422e+00 4.0282144884732352e-01 0 0 0
4735 1405 9 -8.1999999999999995e-01 7.9558361917925087e+00 1.1010486204891269e+01 7.1128465418304172e+00 0 0 0
4736 1405 4 4.0999999999999998e-01 9.2896290939436330e+00 1.0556243720450544e+01 7.1064483983970241e+00 0 0 0
4954 1478 9 -8.1999999999999995e-01 1.0642481585551697e+00 1.0036624470402980e+01 7.3008037854766563e+00 0 0 0
4956 1478 4 4.0999999999999998e-01 2.2719280206920205e+00 1.0637986406735505e+01 7.1309599073533754e+00 0 0 0
2792 757 4 4.0999999999999998e-01 1.7519159853195749e+00 7.6400880998198897e+00 1.5285989389396686e+01 0 0 0
5545 1675 9 -8.1999999999999995e-01 8.2637595460898634e+00 9.9423759589662648e+00 4.7803818280796984e+00 0 0 0
5546 1675 4 4.0999999999999998e-01 8.0121517414209844e+00 8.9096584743177427e+00 5.7299475854274808e+00 0 0 0
5547 1675 4 4.0999999999999998e-01 9.2539196633788077e+00 9.6241036821933559e+00 3.9263804551605790e+00 0 0 0
7633 2371 9 -8.1999999999999995e-01 3.9584170915758508e+00 1.0634063556887005e+01 1.3567428773301399e+01 0 0 0
5923 1801 9 -8.1999999999999995e-01 7.2922682015414724e+00 1.3134056535540333e+01 4.8830450123598999e+00 0 0 0
5924 1801 4 4.0999999999999998e-01 8.3346758197488278e+00 1.2737769902798336e+01 4.1419896317090377e+00 0 0 0
5925 1801 4 4.0999999999999998e-01 6.7380065536335909e+00 1.3478571874706134e+01 3.7260952479597464e+00 0 0 0
6049 1843 9 -8.1999999999999995e-01 2.8729976149004424e+00 1.2118275442252154e+01 5.1495924365739176e+00 0 0 0
6050 1843 4 4.0999999999999998e-01 2.4852944475339069e+00 1.0910684941299900e+01 4.6657034849571879e+00 0 0 0
6051 1843 4 4.0999999999999998e-01 2.4973017338628036e+00 1.2824064281415884e+01 4.0149699192139172e+00 0 0 0
6067 1849 9 -8.1999999999999995e-01 4.6085281167944263e+00 1.0158844035275109e+01 7.9644022502592309e+00 0 0 0
6068 1849 4 4.0999999999999998e-01 5.3625312805891427e+00 1.0896246058835002e+01 7.0142001869395854e+00 0 0 0
6574 2018 9 -8.1999999999999995e-01 8.5865133013888750e-01 9.7399208380999127e+00 3.2529646853569889e+00 0 0 0
6575 2018 4 4.0999999999999998e-01 1.4991021667937285e-01 1.0740892668907120e+01 2.9688562085398518e+00 0 0 0
6576 2018 4 4.0999999999999998e-01 1.7653099342360645e+00 9.6951597068784512e+00 2.1749954076471112e+00 0 0 0
7177 2219 9 -8.1999999999999995e-01 2.5329868172369738e+00 1.4399356253918592e+01 9.3459105730683179e-01 0 0 0
6502 1994 9 -8.1999999999999995e-01 8.5808527813801767e+00 7.6224902521378270e+00 8.7045488743416808e+00 0 0 0
1183 221 9 -8.1999999999999995e-01 4.7266081837155376e+00 4.7077413331897748e+00 1.2372673088882060e+01 0 0 0
1184 221 4 4.0999999999999998e-01 3.6934368716278922e+00 5.6779638720139536e+00 1.2387773025300245e+01 0 0 0
1185 221 4 4.0999999999999998e-01 4.9700070209178806e+00 4.8782453889770725e+00 1.3718169020676164e+01 0 0 0
1384 288 9 -8.1999999999999995e-01 1.7990772443353704e+00 3.9071962159085571e+00 1.4678921915000480e+01 0 0 0
1385 288 4 4.0999999999999998e-01 1.3797234714411819e+00 3.5579081145533547e+00 1.3430090643775593e+01 0 0 0
1386 288 4 4.0999999999999998e-01 2.2584601734031580e+00 2.7070746875870295e+00 1.5216524965637044e+01 0 0 0
1525 335 9 -8.1999999999999995e-01 4.2921922249961888e+00 9.3305361885437688e-01 1.2895704371209630e+01 0 0 0
1526 335 4 4.0999999999999998e-01 2.9883492086330175e+00 1.3033718829276519e+00 1.3151794896330763e+01 0 0 0
5106 1528 4 4.0999999999999998e-01 -4.2964784510253953e-03 8.9769721633032962e+00 1.4167391640789674e+01 1 0 0
1803 427 4 4.0999999999999998e-01 2.9349009795902822e-02 8.9733333055863473e-01 1.0624838646463207e+01 1 0 0
2533 671 9 -8.1999999999999995e-01 2.8454435298712797e+00 4.5391097505155882e+00 8.3933340551132254e+00 0 0 0
2534 671 4 4.0999999999999998e-01 2.1679713051027774e+00 5.5729410562405546e+00 9.1118880143488976e+00 0 0 0
2535 671 4 4.0999999999999998e-01 1.6118175204538132e+00 4.0228752814623014e+00 8.2307471369534042e+00 0 0 0
2791 757 9 -8.1999999999999995e-01 2.6237516862803214e+00 6.5567842073575333e+00 1.5167930742078548e+01 0 0 0
6476 1985 4 4.0999999999999998e-01 3.4995385006863913e+00 1.4392238959610266e+01 1.5387757189678558e+01 0 0 0
2876 785 4 4.0999999999999998e-01 9.7982132734777334e+00 2.6312287232050466e+00 1.4967931150310342e+01 0 0 0
2959 813 9 -8.1999999999999995e-01 6.8132939398501531e+00 3.0329673836298898e+00 1.0279936578950716e+01 0 0 0
2960 813 4 4.0999999999999998e-01 6.9330734572000878e+00 3.9781510070087291e+00 1.1343616951343478e+01 0 0 0
2961 813 4 4.0999999999999998e-01 6.8534089498307482e+00 3.9799616442274801e+00 9.2705897004127760e+00 0 0 0
3139 873 9 -8.1999999999999995e-01 4.6536135087441659e+00 7.5183392471217871e+00 1.0755482060558951e+01 0 0 0
3141 873 4 4.0999999999999998e-01 5.6869199926588268e+00 6.8501145726914086e+00 1.1245986448109695e+01 0 0 0
3845 1108 4 4.0999999999999998e-01 9.4667777011701233e+00 6.8547555242653386e+00 1.4994596416181292e+01 0 0 0
6066 1848 4 4.0999999999999998e-01 1.8699350587976362e+00 1.4977332777638940e+01 4.8469578290254383e+00 0 0 0
4603 1361 9 -8.1999999999999995e-01 7.2778132985552606e+00 6.0194970290766943e+00 1.3883202498385851e+01 0 0 0
4604 1361 4 4.0999999999999998e-01 7.5125064848973029e+00 6.4422092708535947e+00 1.2647661639841456e+01 0 0 0
4605 1361 4 4.0999999999999998e-01 6.9276741566514035e+00 7.2799380279274857e+00 1.4216098670764509e+01 0 0 0
5395 1625 9 -8.1999999999999995e-01 1.0563984180085573e+00 6.9067884616917343e+00 1.2464473277971068e+01 0 0 0
5397 1625 4 4.0999999999999998e-01 6.9224077749317003e-01 5.5981228375876473e+00 1.2410016916944748e+01 0 0 0
6741 2073 4 4.0999999999999998e-01 7.9827798690080654e+00 1.0736385272012882e+01 1.0534573858086187e+01 0 0 0
5795 1758 4 4.0999999999999998e-01 7.9009877036120724e+00 4.0745872956976719e+00 1.5117207469780185e+01 0 0 0
6277 1919 9 -8.1999999999999995e-01 3.8077608267457115e+00 7.1289201693909074e+00 7.9155490620689744e+00 0 0 0
6278 1919 4 4.0999999999999998e-01 4.6422934160354226e+00 6.1952882525569688e+00 8.6184916215060188e+00 0 0 0
6504 1994 4 4.0999999999999998e-01 7.9783645281138780e+00 6.4522886561261146e+00 9.1291792498471160e+00 0 0 0
6534 2004 4 4.0999999999999998e-01 5.1441037738159183e+00 6.6139561106742315e+00 1.5565806985465182e+01 0 0 0
6865 2115 9 -8.1999999999999995e-01 3.7353212513513654e+00 1.3604644591767492e+00 9.8787342592413161e+00 0 0 0
6866 2115 4 4.0999999999999998e-01 4.5148492991458022e+00 2.1674777855043912e+00 1.0675208979429257e+01 0 0 0
6867 2115 4 4.0999999999999998e-01 4.6169294959199947e+00 1.6881713088387447e+00 8.8520670373513592e+00 0 0 0
829 103 9 -8.1999999999999995e-01 -2.0770615396152436e-02 6.7988144660560568e-01 6.0265115094506987e+00 0 0 0
7297 2259 9 -8.1999999999999995e-01 1.4051364885943809e+00 3.8039302395583134e+00 1.0803063962920021e+01 0 0 0
7298 2259 4 4.0999999999999998e-01 1.6433190008309853e+00 2.6136364360153119e+00 1.0246402335606716e+01 0 0 0
7299 2259 4 4.0999999999999998e-01 2.7788440512478787e+00 3.9348829209343150e+00 1.0940348225270398e+01 0 0 0
7666 2382 9 -8.1999999999999995e-01 9.4450965681394301e+00 3.4494878971280305e+00 1.1553040199434092e+01 0 0 0
7668 2382 4 4.0999999999999998e-01 8.7518162786777900e+00 2.2505969219901423e+00 1.1689802932788295e+01 0 0 0
7669 2383 9 -8.1999999999999995e-01 7.1593189411413363e+00 1.7787127312639628e+00 1.4326125731731780e+01 0 0 0
7670 2383 4 4.0999999999999998e-01 5.9518070842352770e+00 2.2867399931676911e+00 1.4860308262809069e+01 0 0 0
7671 2383 4 4.0999999999999998e-01 6.7563767074458223e+00 1.6799685468017551e+00 1.3009468486692953e+01 0 0 0
557 20 2 -2.0000000000000001e-01 8.6384832688850075e+00 1.4265659145925692e+01 1.4930072935457137e+01 0 0 0
559 20 1 -7.0000000000000007e-02 7.3136086448431188e+00 1.4422852463193278e+01 1.5669055797476915e+01 0 0 0
7677 2385 4 4.0999999999999998e-01 7.9423003849298706e+00 1.4667115842113670e+01 6.7098244069518058e+00 0 0 0
562 20 10 -3.8000000000000000e-01 6.1332437090868934e+00 1.4488095772733589e+01 1.5540792517219311e+01 0 0 0
569 20 6 3.4999999999999998e-01 5.5777005907772423e+00 1.4732536497781371e+01 1.4774753735856295e+01 0 0 0
577 20 3 1.0000000000000001e-01 9.1415723977619194e+00 1.2993857916444021e+01 1.4740123880124603e+01 0 0 0
6503 1994 4 4.0999999999999998e-01 8.9393662738953452e+00 7.9661783709052640e+00 1.0024516885182889e+01 0 0 0
7635 2371 4 4.0999999999999998e-01 3.0202398968461508e+00 9.7022833700372608e+00 1.4119222915770500e+01 0 0 0
754 78 9 -8.1999999999999995e-01 6.7953397477476063e+00 8.9661531461593977e+00 1.2238610739890095e+01 0 0 0
755 78 4 4.0999999999999998e-01 8.0465757887263880e+00 9.1198248960695310e+00 1.2778116760432722e+01 0 0 0
756 78 4 4.0999999999999998e-01 5.9768294319916588e+00 1.0119207904643760e+01 1.2076590443815752e+01 0 0 0
827 102 4 4.0999999999999998e-01 1.9437657383467390e+00 1.4574183869853183e+01 9.4583308379684503e+00 0 0 0
1209 229 4 4.0999999999999998e-01 9.9518306751071073e+00 1.0584425149239079e+01 1.4756587027236170e+01 0 0 0
1657 379 9 -8.1999999999999995e-01 1.8554686609935385e+00 1.1855577532663432e+01 1.5810036269297667e+01 0 0 0
1659 379 4 4.0999999999999998e-01 2.0479484429930919e+00 1.2312211896928044e+01 1.4546742469242314e+01 0 0 0
1891 457 9 -8.1999999999999995e-01 5.8609999301504505e+00 1.3236806074569904e+01 1.3290760778724763e+01 0 0 0
1892 457 4 4.0999999999999998e-01 6.3090475419654339e+00 1.2729452698013549e+01 1.4450925153633717e+01 0 0 0
1893 457 4 4.0999999999999998e-01 6.8464200434709435e+00 1.4158192551552199e+01 1.2913509192848929e+01 0 0 0
1894 458 9 -8.1999999999999995e-01 5.1897055255158797e+00 9.2878048138553755e+00 1.5573419405134370e+01 0 0 0
1895 458 4 4.0999999999999998e-01 6.1174363395138691e+00 9.6419516514202961e+00 1.4643084870756013e+01 0 0 0
1896 458 4 4.0999999999999998e-01 4.7723660975580113e+00 1.0498473712400829e+01 1.5969681884246388e+01 0 0 0
1897 459 9 -8.1999999999999995e-01 5.7906056131572043e+00 1.2230733603408648e+01 1.0328067574370129e+01 0 0 0
1898 459 4 4.0999999999999998e-01 6.5218247217422309e+00 1.3083043500151833e+01 1.0937802688590013e+01 0 0 0
1899 459 4 4.0999999999999998e-01 5.8604961881710036e+00 1.2682550646067508e+01 8.9990225126775076e+00 0 0 0
3140 873 4 4.0999999999999998e-01 5.5801427796801528e+00 8.0826249906822714e+00 9.8954102542879347e+00 0 0 0
3844 1108 9 -8.1999999999999995e-01 9.4034739600484709e+00 8.2190846486798304e+00 1.4973649996076746e+01 0 0 0
3846 1108 4 4.0999999999999998e-01 9.3526129789350012e+00 7.5163761476296447e+00 1.3868302389571534e+01 0 0 0
4294 1258 9 -8.1999999999999995e-01 1.8078431671827975e+00 9.6734950606649868e+00 1.1114469963947961e+01 0 0 0
4295 1258 4 4.0999999999999998e-01 1.3759918446593593e+00 9.3542933774262487e+00 1.2313108597403305e+01 0 0 0
4296 1258 4 4.0999999999999998e-01 3.0304026349883291e+00 9.1066526616233059e+00 1.1493442157411039e+01 0 0 0
7634 2371 4 4.0999999999999998e-01 3.4897739991168732e+00 1.1654857381967753e+01 1.2738076184380244e+01 0 0 0
4515 1331 4 4.0999999999999998e-01 9.1935594856148910e+00 1.4296308209456370e+01 1.1803155556881650e+01 0 0 0
4737 1405 4 4.0999999999999998e-01 7.6983776692070496e+00 1.2322653185332657e+01 7.1966850885644220e+00 0 0 0
4955 1478 4 4.0999999999999998e-01 1.5135645394948527e+00 9.8688126657333459e+00 8.5886816703282758e+00 0 0 0
5396 1625 4 4.0999999999999998e-01 7.5297492646926767e-01 7.0936835319525580e+00 1.1124313258444481e+01 0 0 0
5485 1655 9 -8.1999999999999995e-01 7.8065133029504521e+00 1.1720478964379680e+01 1.2649041494412845e+01 0 0 0
5486 1655 4 4.0999999999999998e-01 8.9706881210291254e+00 1.2017177905372403e+01 1.2365042603889300e+01 0 0 0
5487 1655 4 4.0999999999999998e-01 7.8420147122586190e+00 1.1151274784243480e+01 1.3754204349367399e+01 0 0 0
5584 1688 9 -8.1999999999999995e-01 2.8623483857959919e+00 1.1896394356159670e+01 9.4880999399255490e+00 0 0 0
5585 1688 4 4.0999999999999998e-01 3.3593108161993688e+00 1.2855542108051896e+01 1.0323998819045054e+01 0 0 0
5586 1688 4 4.0999999999999998e-01 3.5966266761245267e+00 1.1135717912398061e+01 1.0287298745710872e+01 0 0 0
5845 1775 9 -8.1999999999999995e-01 9.4138111135857088e+00 1.3327947202416023e+01 9.7174505056425691e+00 0 0 0
5846 1775 4 4.0999999999999998e-01 9.2197733062631162e+00 1.2363054348227998e+01 8.9772201071639213e+00 0 0 0
5847 1775 4 4.0999999999999998e-01 8.1861078670254539e+00 1.3611023162369863e+01 9.3792007398097006e+00 0 0 0
6069 1849 4 4.0999999999999998e-01 5.4590688382535388e+00 1.0206977900827873e+01 8.9725423608613806e+00 0 0 0
6279 1919 4 4.0999999999999998e-01 2.9593879124305178e+00 7.8797597811323135e+00 8.7598207643707404e+00 0 0 0
6475 1985 9 -8.1999999999999995e-01 2.2159832653459044e+00 1.4803284088114145e+01 1.5417521065109334e+01 0 0 0
6897 2125 4 4.0999999999999998e-01 9.8346255450299029e+00 7.4306954259427886e+00 5.1506500244519406e+00 0 0 0
556 20 1 5.0000000000000003e-02 9.9226459772909532e+00 1.4344275151651081e+01 1.5546868160796162e+01 0 0 0
4360 1280 9 -8.1999999999999995e-01 4.3879248671853981e+00 1.4913554357811394e+01 6.2962507634578291e+00 0 0 0
6532 2004 9 -8.1999999999999995e-01 5.4937688073224376e+00 5.3587463297550064e+00 1.6108483858058115e+01 0 0 0
6480 1986 4 4.0999999999999998e-01 7.9244617729822835e+00 1.4432065570097418e+01 1.5844167465144811e-02 0 0 1
601 27 9 -8.1999999999999995e-01 6.7527725681958604e+00 3.1712095213734024e+00 2.1144757360301327e+01 0 0 0
602 27 4 4.0999999999999998e-01 6.8031407263630959e+00 3.0215836243845575e+00 1.9761101172731422e+01 0 0 0
603 27 4 4.0999999999999998e-01 6.7144519218111132e+00 4.5194893279995618e+00 2.0997511392739813e+01 0 0 0
973 151 9 -8.1999999999999995e-01 8.4706460194349340e+00 1.9730773721073485e+00 1.8211301981178181e+01 0 0 0
974 151 4 4.0999999999999998e-01 9.8213654048037586e+00 2.1105279787013993e+00 1.8104030621164618e+01 0 0 0
975 151 4 4.0999999999999998e-01 8.0308270847132963e+00 8.2572201295462866e-01 1.8755386017036276e+01 0 0 0
1222 234 9 -8.1999999999999995e-01 4.8738891331322156e+00 6.9914024736195648e+00 1.9333215921140049e+01 0 0 0
1223 234 4 4.0999999999999998e-01 5.1236176072140500e+00 6.3191229910647415e+00 2.0489803625478189e+01 0 0 0
1224 234 4 4.0999999999999998e-01 4.0266342293594937e+00 6.0832629111955185e+00 1.8922651354578729e+01 0 0 0
1425 301 4 4.0999999999999998e-01 8.0213695315643658e+00 6.4933948387217988e-01 2.3759960554202163e+01 0 1 0
1738 406 9 -8.1999999999999995e-01 7.8476843599113693e+00 6.2289772870602320e+00 2.3403049466196975e+01 0 0 0
1739 406 4 4.0999999999999998e-01 7.0816353798909955e+00 5.0855876191303437e+00 2.3379968501658119e+01 0 0 0
1740 406 4 4.0999999999999998e-01 7.6724787022125573e+00 6.9209692969073950e+00 2.2200023601420504e+01 0 0 0
1882 454 9 -8.1999999999999995e-01 2.0419503430452739e+00 4.1414505237921277e+00 1.9586780310168379e+01 0 0 0
1883 454 4 4.0999999999999998e-01 9.4747550721017082e-01 3.2438805140141254e+00 1.9780835851407740e+01 0 0 0
1884 454 4 4.0999999999999998e-01 2.5781590675568142e+00 3.5083552907279287e+00 1.8416766577034128e+01 0 0 0
2793 757 4 4.0999999999999998e-01 3.1026803962999017e+00 5.9254200293828347e+00 1.6352841695017030e+01 0 0 0
2809 763 9 -8.1999999999999995e-01 1.4331603813558220e+00 4.8115860188253539e+00 2.2972654933199482e+01 0 0 0
2810 763 4 4.0999999999999998e-01 1.4988008687631800e+00 6.0817331979410989e+00 2.3474417680845523e+01 0 0 0
2811 763 4 4.0999999999999998e-01 6.3427243064342179e-02 4.6715856227027688e+00 2.3279290317503953e+01 0 0 0
3550 1010 9 -8.1999999999999995e-01 5.0865906096290714e-01 1.8259524464302264e+00 1.7121646089769524e+01 0 0 0
561 20 5 1.4000000000000001e-01 5.2700551716530635e+00 1.3025725675886525e+01 1.6816322396444768e+01 0 0 0
3709 1063 9 -8.1999999999999995e-01 2.6463771711863182e+00 1.6181218163417173e+00 2.4339795045838862e+01 0 0 0
3711 1063 4 4.0999999999999998e-01 3.1018071643377154e+00 1.6536436691373839e+00 2.3075692308986206e+01 0 0 0
3742 1074 9 -8.1999999999999995e-01 7.7151052986047706e+00 7.0541228446366944e+00 1.6653580041362851e+01 0 0 0
3744 1074 4 4.0999999999999998e-01 7.4288563866157418e+00 6.2305490281235514e+00 1.7636971309027672e+01 0 0 0
4146 1208 4 4.0999999999999998e-01 1.8043005368990928e+00 6.7052155416828318e+00 1.8781180351176523e+01 0 0 0
4267 1249 9 -8.1999999999999995e-01 4.7447913366799570e+00 1.3907689038428064e+00 2.1320756202001238e+01 0 0 0
4268 1249 4 4.0999999999999998e-01 4.1945170264565466e+00 2.6240133504260186e+00 2.0900729365281130e+01 0 0 0
4269 1249 4 4.0999999999999998e-01 5.3241915431413451e+00 1.0242029009545828e+00 2.0122968867921365e+01 0 0 0
4477 1319 9 -8.1999999999999995e-01 4.8452195874095896e+00 2.3458015088075954e+00 1.7943718559400406e+01 0 0 0
4478 1319 4 4.0999999999999998e-01 6.0862056173172787e+00 2.0933520658607794e+00 1.7487750325461029e+01 0 0 0
4479 1319 4 4.0999999999999998e-01 4.4020870345246319e+00 1.3030576518630470e+00 1.7129266599432860e+01 0 0 0
5394 1624 4 4.0999999999999998e-01 2.3608924090354225e-01 4.9770593395096269e-01 2.0510060439296804e+01 0 1 0
5470 1650 9 -8.1999999999999995e-01 9.2470867062329223e+00 2.0264088279758985e+00 2.0878646413570792e+01 0 0 0
5471 1650 4 4.0999999999999998e-01 9.2880730327766692e+00 3.0509765380472555e+00 2.1818779716495417e+01 0 0 0
5794 1758 9 -8.1999999999999995e-01 7.4696843729579561e+00 3.7582057626750092e+00 1.6379785293085906e+01 0 0 0
5796 1758 4 4.0999999999999998e-01 8.6182201999223977e+00 3.9930220449020388e+00 1.6893373485187457e+01 0 0 0
5881 1787 9 -8.1999999999999995e-01 4.6545026156401708e+00 6.2298282824152809e+00 2.3052986334252587e+01 0 0 0
5882 1787 4 4.0999999999999998e-01 3.5370545642245141e+00 6.9839111373234015e+00 2.2626299258069889e+01 0 0 0
5883 1787 4 4.0999999999999998e-01 4.1110194012732233e+00 5.1218195141502383e+00 2.3718787869153534e+01 0 0 0
548 19 3 1.0000000000000001e-01 8.0105645712940685e+00 1.5028678765212655e+01 2.5453360424734260e+01 0 0 0
6533 2004 4 4.0999999999999998e-01 5.4719677573461487e+00 4.9931620641804892e+00 1.7448955101006199e+01 0 0 0
7058 2179 4 4.0999999999999998e-01 8.9459837170120391e+00 9.3009399647798237e+00 2.5401176852488579e+01 0 0 0
6890 2123 4 4.0999999999999998e-01 9.6650747141959048e+00 5.7345154020626250e+00 1.7915801845787051e+01 0 0 0
6891 2123 4 4.0999999999999998e-01 9.7077698758652797e+00 7.7813797212877454e+00 1.7753625908382091e+01 0 0 0
6989 2156 4 4.0999999999999998e-01 9.3130155874016491e+00 4.2038105317527430e-01 1.6483419999980356e+01 0 0 0
7231 2237 9 -8.1999999999999995e-01 8.9648893599432247e-02 4.4898505791513816e+00 1.7432365807380027e+01 0 0 0
7233 2237 4 4.0999999999999998e-01 1.0791632493929442e+00 5.1835093484656731e+00 1.7020727368214644e+01 0 0 0
5977 1819 9 -8.1999999999999995e-01 9.8500093316515205e+00 1.1655161162443397e+01 1.8381666246448241e+01 0 0 0
7057 2179 9 -8.1999999999999995e-01 7.7485556173223342e+00 9.8474856520997367e+00 2.4976487848915063e+01 0 0 0
528 19 1 5.0000000000000003e-02 8.8087718864360731e+00 1.3334522453105626e+01 2.1486097931349509e+01 0 0 0
529 19 1 1.2000000000000000e-01 7.1246772807465781e+00 1.3516214467954931e+01 2.3793301855283683e+01 0 0 0
530 19 1 -7.0000000000000007e-02 7.4463836265822634e+00 1.3133448354148278e+01 2.2273411417566223e+01 0 0 0
531 19 7 -5.0000000000000000e-01 6.1691397877342888e+00 1.4422377820293505e+01 2.3594606562932288e+01 0 0 0
533 19 10 -3.8000000000000000e-01 6.3397839368023057e+00 1.3615981917385255e+01 2.2292817990541320e+01 0 0 0
578 20 3 1.0000000000000001e-01 8.3506488785589816e+00 1.4568416074944860e+01 1.8323958794860850e+01 0 0 0
540 19 6 3.4999999999999998e-01 5.7059304860633517e+00 1.3879155218734285e+01 2.1590887184268425e+01 0 0 0
550 19 3 1.0000000000000001e-01 8.6589142286002811e+00 1.2345382538182864e+01 2.1470238518873725e+01 0 0 0
551 19 3 1.0000000000000001e-01 6.3706185406265128e+00 1.2852970477639746e+01 2.3821619269628524e+01 0 0 0
552 19 3 1.0000000000000001e-01 7.4914344382643607e+00 1.2165821260459813e+01 2.2137344593908313e+01 0 0 0
553 20 8 -2.9999999999999999e-01 8.7912367786024497e+00 1.3094309533468754e+01 1.9719643589118185e+01 0 0 0