LAMMPS data file. CGCMM Style. atom_style full. Created by charmm2lammps v1.9.2 on Sun Mar  6 22:47:47 CST 2022

        583  atoms
        602  bonds
        1121  angles
        2519  dihedrals
           0  impropers

          14  atom types
          14  bond types
          31  angle types
          79  dihedral types
           0  improper types

      38.388       68.686 xlo xhi
      33.719       55.253 ylo yhi
     -28.182      129.748 zlo zhi

Masses

       1    15.9994  # OG311
       2     12.011  # CG311
       3    15.9994  # OG3C61
       4     12.011  # CG321
       5      1.008  # HGA2
       6    15.9994  # OG301
       7     14.007  # NG321
       8      1.008  # HGPAM2
       9      1.008  # HGA1
      10      1.008  # HGP1
      11      1.008  # HT
      12    15.9994  # OT
      13   22.98977  # SOD
      14      35.45  # CLA

Pair Coeffs # lj/charmm/coul/long

       1           0.1921    3.14487247504           0.1921    3.14487247504  # OG311
       2            0.032    3.56359487256             0.01    3.38541512893  # CG311
       3              0.1    2.93996576986              0.1    2.93996576986  # OG3C61
       4            0.056    3.58141284692             0.01    3.38541512893  # CG321
       5            0.035    2.38760856462            0.035    2.38760856462  # HGA2
       6              0.1    2.93996576986              0.1    2.93996576986  # OG301
       7             0.06     3.5457768982             0.06     3.5457768982  # NG321
       8             0.01    1.55907275675             0.01    1.55907275675  # HGPAM2
       9            0.045    2.38760856462            0.045    2.38760856462  # HGA1
      10            0.046   0.400013524445            0.046   0.400013524445  # HGP1
      11            0.046   0.400013524445            0.046   0.400013524445  # HT
      12           0.1521    3.15057422683           0.1521    3.15057422683  # OT
      13           0.0469    2.51367073323           0.0469    2.51367073323  # SOD
      14             0.15    4.04468018036             0.15    4.04468018036  # CLA

Atoms # full

       1       1     1     -0.65           53.092           44.447          -18.072  # OG311
       2       1    10     0.403           54.045           44.447          -18.378  # HGP1
       3       1     2     0.294           53.061           44.447          -16.534  # CG311
       4       1     3    -0.393           51.973           44.446          -15.444  # OG3C61
       5       1     2     0.029           51.939           44.447          -13.904  # CG311
       6       1     9      0.09           53.638           44.447          -13.131  # HGA1
       7       1     2     0.169           54.184           44.447          -15.479  # CG311
       8       1     2     0.138           54.226           44.447           -13.94  # CG311
       9       1     7    -0.988           55.721           44.447          -15.568  # NG321
      10       1     8      0.39           56.171           44.447          -16.463  # HGPAM2
      11       1     1    -0.642           55.765           44.447          -13.967  # OG311
      12       1     4     0.043           50.399           44.447          -13.864  # CG321
      13       1     6    -0.347            49.62           44.447          -12.537  # OG301
      14       1     4     0.006           50.601           44.446          -11.348  # CG321
      15       1     4     0.026           49.528           44.447          -10.244  # CG321
      16       1     1     -0.64           50.684           44.447           -9.227  # OG311
      17       1     8      0.39            56.27           44.446          -14.734  # HGPAM2
      18       1    10      0.42           56.107           44.447          -13.028  # HGP1
      19       1     5      0.09           50.103           45.261          -14.364  # HGA2
      20       1     5      0.09           50.103           43.632          -14.364  # HGA2
      21       1     5      0.09           51.181           43.633          -11.324  # HGA2
      22       1     5      0.09           51.182           45.261          -11.325  # HGA2
      23       1     5      0.09           48.949            45.26          -10.221  # HGA2
      24       1     5      0.09           48.949           43.632          -10.221  # HGA2
      25       1    10     0.419           50.304           44.447           -8.301  # HGP1
      26       1     9      0.09           52.951           44.447          -17.527  # HGA1
      27       1     9      0.09             52.6           44.446          -13.154  # HGA1
      28       1     9      0.09           53.113           44.447          -11.846  # HGA1
      29       1     9      0.09           53.429           44.447          -16.135  # HGA1
      30       1     2     0.143           53.056           44.447          -12.845  # CG311
      31       2     6    -0.396           53.019           44.447          -11.335  # OG301
      32       2     2     0.243           52.967           44.447           -9.796  # CG311
      33       2     3    -0.393           51.865           44.447           -8.719  # OG3C61
      34       2     2     0.029           51.813           44.447           -7.181  # CG311
      35       2     9      0.09           53.502           44.447           -6.388  # HGA1
      36       2     2     0.169           54.077           44.447           -8.728  # CG311
      37       2     2     0.138             54.1           44.446           -7.188  # CG311
      38       2     7    -0.988           55.615           44.447           -8.798  # NG321
      39       2     8      0.39           56.043           44.447           -9.702  # HGPAM2
      40       2     1    -0.642            55.64           44.446           -7.196  # OG311
      41       2     4     0.043           50.272           44.446            -7.16  # CG321
      42       2     6    -0.347           49.478           44.446           -5.841  # OG301
      43       2     4     0.006           50.444           44.447           -4.642  # CG321
      44       2     4     0.026           49.357           44.447           -3.551  # CG321
      45       2     1     -0.64           50.501           44.447            -2.52  # OG311
      46       2     8      0.39           56.212           44.447           -7.996  # HGPAM2
      47       2    10      0.42            55.97           44.447           -6.252  # HGP1
      48       2     5      0.09           49.985           45.261           -7.664  # HGA2
      49       2     5      0.09           49.985           43.633           -7.664  # HGA2
      50       2     5      0.09           51.024           43.633           -4.611  # HGA2
      51       2     5      0.09           51.024            45.26           -4.611  # HGA2
      52       2     5      0.09           48.777           45.261           -3.536  # HGA2
      53       2     5      0.09           48.777           43.632           -3.536  # HGA2
      54       2    10     0.419           50.109           44.447           -1.599  # HGP1
      55       2     9      0.09           52.868           44.446          -10.791  # HGA1
      56       2     9      0.09           52.465           44.446           -6.422  # HGA1
      57       2     9      0.09           52.918           44.447           -5.107  # HGA1
      58       2     9      0.09            53.33           44.447           -9.393  # HGA1
      59       2     2     0.143           52.918           44.447           -6.108  # CG311
      60       3     6    -0.396           52.885           44.446           -4.598  # OG301
      61       3     2     0.243           52.841           44.447           -3.058  # CG311
      62       3     3    -0.393           51.743           44.447           -1.977  # OG3C61
      63       3     2     0.029           51.697           44.447           -0.437  # CG311
      64       3     9      0.09           53.388           44.446            0.346  # HGA1
      65       3     2     0.169           53.955           44.447           -1.995  # CG311
      66       3     2     0.138           53.984           44.446           -0.456  # CG311
      67       3     7    -0.988           55.493           44.447           -2.072  # NG321
      68       3     8      0.39           55.917           44.447           -2.978  # HGPAM2
      69       3     1    -0.642           55.524           44.446            -0.47  # OG311
      70       3     4     0.043           50.158           44.447           -0.412  # CG321
      71       3     6    -0.347           49.368           44.447            0.911  # OG301
      72       3     4     0.006            50.34           44.447            2.106  # CG321
      73       3     4     0.026           49.258           44.447            3.202  # CG321
      74       3     1     -0.64           50.405           44.447            4.229  # OG311
      75       3     8      0.39           56.094           44.447           -1.272  # HGPAM2
      76       3    10      0.42           55.859           44.447            0.472  # HGP1
      77       3     5      0.09           49.865           45.261           -0.914  # HGA2
      78       3     5      0.09           49.865           43.632           -0.914  # HGA2
      79       3     5      0.09           50.921           43.633            2.134  # HGA2
      80       3     5      0.09           50.921           45.261            2.134  # HGA2
      81       3     5      0.09           48.676            45.26             3.22  # HGA2
      82       3     5      0.09           48.677           43.633            3.219  # HGA2
      83       3    10     0.419           50.018           44.446            5.151  # HGP1
      84       3     9      0.09           52.737           44.447           -4.053  # HGA1
      85       3     9      0.09           52.351           44.447             0.32  # HGA1
      86       3     9      0.09           52.814           44.446            1.629  # HGA1
      87       3     9      0.09           53.206           44.446           -2.659  # HGA1
      88       3     2     0.143           52.807           44.447            0.631  # CG311
      89       4     6    -0.396           52.781           44.447             2.14  # OG301
      90       4     2     0.243           52.755           44.447             3.68  # CG311
      91       4     3    -0.393           51.671           44.447            4.774  # OG3C61
      92       4     2     0.029           51.642           44.447            6.314  # CG311
      93       4     9      0.09           53.344           44.447            7.079  # HGA1
      94       4     2     0.169           53.882           44.447            4.729  # CG311
      95       4     2     0.138           53.931           44.447            6.268  # CG311
      96       4     7    -0.988           55.418           44.446            4.634  # NG321
      97       4     8      0.39           55.864           44.446            3.739  # HGPAM2
      98       4     1    -0.642            55.47           44.447            6.236  # OG311
      99       4     4     0.043           50.104           44.447            6.358  # CG321
     100       4     6    -0.347            49.33           44.447            7.691  # OG301
     101       4     4     0.006           50.316           44.447            8.874  # CG321
     102       4     4     0.026           49.246           44.446            9.983  # CG321
     103       4     1     -0.64           50.407           44.447           10.994  # OG311
     104       4     8      0.39           55.972           44.446            5.467  # HGPAM2
     105       4    10      0.42           55.815           44.447            7.175  # HGP1
     106       4     5      0.09           49.808           45.261             5.86  # HGA2
     107       4     5      0.09           49.808           43.633             5.86  # HGA2
     108       4     5      0.09           50.897           43.632            8.895  # HGA2
     109       4     5      0.09           50.897           45.261            8.895  # HGA2
     110       4     5      0.09           48.666           45.261           10.008  # HGA2
     111       4     5      0.09           48.666           43.633           10.008  # HGA2
     112       4    10     0.419           50.031           44.447           11.921  # HGP1
     113       4     9      0.09           52.642           44.447            2.686  # HGA1
     114       4     9      0.09           52.307           44.447            7.061  # HGA1
     115       4     9      0.09           52.825           44.447            8.367  # HGA1
     116       4     9      0.09           53.125           44.447            4.077  # HGA1
     117       4     2     0.143           52.765           44.446            7.369  # CG311
     118       5     6    -0.396           52.733           44.447            8.879  # OG301
     119       5     2     0.243           52.687           44.446           10.418  # CG311
     120       5     3    -0.393            51.59           44.447           11.499  # OG3C61
     121       5     2     0.029           51.543           44.447           13.038  # CG311
     122       5     9      0.09           53.234           44.446           13.824  # HGA1
     123       5     2     0.169           53.802           44.447           11.481  # CG311
     124       5     2     0.138           53.829           44.447           13.021  # CG311
     125       5     7    -0.988           55.339           44.446           11.405  # NG321
     126       5     8      0.39           55.763           44.444           10.499  # HGPAM2
     127       5     1    -0.642            55.37           44.447           13.007  # OG311
     128       5     4     0.043           50.002           44.447           13.064  # CG321
     129       5     6    -0.347           49.213           44.447           14.386  # OG301
     130       5     4     0.006           50.185           44.447           15.581  # CG321
     131       5     4     0.026           49.101           44.447           16.677  # CG321
     132       5     1     -0.64           50.249           44.447           17.704  # OG311
     133       5     8      0.39           55.941           44.447           12.204  # HGPAM2
     134       5    10      0.42           55.705           44.446           13.949  # HGP1
     135       5     5      0.09           49.713           45.261           12.561  # HGA2
     136       5     5      0.09           49.713           43.632           12.562  # HGA2
     137       5     5      0.09           50.765           43.632           15.609  # HGA2
     138       5     5      0.09           50.765           45.261           15.609  # HGA2
     139       5     5      0.09            48.52            45.26           16.695  # HGA2
     140       5     5      0.09           48.521           43.633           16.695  # HGA2
     141       5    10     0.419           49.861           44.447           18.626  # HGP1
     142       5     9      0.09           52.583           44.447            9.423  # HGA1
     143       5     9      0.09           52.198           44.447           13.794  # HGA1
     144       5     9      0.09           52.655           44.446           15.106  # HGA1
     145       5     9      0.09           53.053           44.446           10.817  # HGA1
     146       5     2     0.143           52.652           44.447           14.106  # CG311
     147       6     6    -0.396           52.625           44.447           15.616  # OG301
     148       6     2     0.243           52.587           44.447           17.155  # CG311
     149       6     3    -0.393           51.494           44.447            18.24  # OG3C61
     150       6     2     0.029           51.454           44.447            19.78  # CG311
     151       6     9      0.09           53.147           44.446           20.559  # HGA1
     152       6     2     0.169           53.705           44.447           18.214  # CG311
     153       6     2     0.138           53.741           44.447           19.753  # CG311
     154       6     7    -0.988           55.243           44.447           18.131  # NG321
     155       6     8      0.39           55.664           44.447           17.224  # HGPAM2
     156       6     1    -0.642           55.281           44.447           19.733  # OG311
     157       6     4     0.043           49.914           44.447           19.814  # CG321
     158       6     6    -0.347            49.13           44.447           21.139  # OG301
     159       6     4     0.006           50.106           44.447            22.33  # CG321
     160       6     4     0.026           49.027           44.447            23.43  # CG321
     161       6     1     -0.64            50.18           44.447           24.452  # OG311
     162       6     8      0.39           55.847           44.447           18.928  # HGPAM2
     163       6    10      0.42           55.619           44.447           20.674  # HGP1
     164       6     5      0.09            49.62           45.261           19.312  # HGA2
     165       6     5      0.09           49.621           43.633           19.311  # HGA2
     166       6     5      0.09           50.687           43.633           22.356  # HGA2
     167       6     5      0.09           50.687           45.261           22.355  # HGA2
     168       6     5      0.09           48.447            45.26            23.45  # HGA2
     169       6     5      0.09           48.447           43.633           23.449  # HGA2
     170       6    10     0.419           49.797           44.446           25.375  # HGP1
     171       6     9      0.09           52.481           44.447           16.161  # HGA1
     172       6     9      0.09           52.112           44.447           20.532  # HGA1
     173       6     9      0.09           52.578           44.447           21.845  # HGA1
     174       6     9      0.09           52.954           44.447           17.554  # HGA1
     175       6     2     0.143           52.568           44.447           20.844  # CG311
     176       7     6    -0.396           52.547           44.447           22.355  # OG301
     177       7     2     0.243           52.516           44.447           23.895  # CG311
     178       7     3    -0.393           51.427           44.447           24.984  # OG3C61
     179       7     2     0.029           51.393           44.446           26.524  # CG311
     180       7     9      0.09           53.093           44.447           27.297  # HGA1
     181       7     2     0.169           53.638           44.447           24.948  # CG311
     182       7     2     0.138            53.68           44.447           26.488  # CG311
     183       7     7    -0.988           55.176           44.447           24.858  # NG321
     184       7     8      0.39           55.593           44.447           23.949  # HGPAM2
     185       7     1    -0.642            55.22           44.447           26.461  # OG311
     186       7     4     0.043           49.853           44.446           26.563  # CG321
     187       7     6    -0.347           49.075           44.446           27.892  # OG301
     188       7     4     0.006           50.056           44.447           29.079  # CG321
     189       7     4     0.026           48.983           44.447           30.183  # CG321
     190       7     1     -0.64           50.139           44.447           31.201  # OG311
     191       7     8      0.39           55.783           44.447           25.653  # HGPAM2
     192       7    10      0.42           55.562           44.446             27.4  # HGP1
     193       7     5      0.09           49.558            45.26           26.064  # HGA2
     194       7     5      0.09           49.558           43.633           26.063  # HGA2
     195       7     5      0.09           50.637           43.633           29.103  # HGA2
     196       7     5      0.09           50.637           45.261           29.103  # HGA2
     197       7     5      0.09           48.403            45.26           30.206  # HGA2
     198       7     5      0.09           48.404           43.633           30.205  # HGA2
     199       7    10     0.419           49.759           44.446           32.126  # HGP1
     200       7     9      0.09           52.405           44.447           22.901  # HGA1
     201       7     9      0.09           52.054           44.447           27.276  # HGA1
     202       7     9      0.09           52.524           44.446           28.583  # HGA1
     203       7     9      0.09           52.884           44.447           24.291  # HGA1
     204       7     2     0.143           52.511           44.447           27.583  # CG311
     205       8     6    -0.396           52.498           44.447           29.093  # OG301
     206       8     2     0.243           52.472           44.447           30.633  # CG311
     207       8     3    -0.393           51.389           44.447           31.727  # OG3C61
     208       8     2     0.029           51.362           44.446           33.267  # CG311
     209       8     9      0.09           53.063           44.446           34.032  # HGA1
     210       8     2     0.169           53.599           44.446           31.681  # CG311
     211       8     2     0.138           53.648           44.447            33.22  # CG311
     212       8     7    -0.988           55.137           44.447           31.586  # NG321
     213       8     8      0.39           55.551           44.448           30.676  # HGPAM2
     214       8     1    -0.642           55.188           44.446           33.187  # OG311
     215       8     4     0.043           49.822           44.447           33.313  # CG321
     216       8     6    -0.347           49.049           44.447           34.645  # OG301
     217       8     4     0.006           50.036           44.447           35.827  # CG321
     218       8     4     0.026           48.966           44.447           36.937  # CG321
     219       8     1     -0.64           50.127           44.447            37.95  # OG311
     220       8     8      0.39           55.747           44.447           32.378  # HGPAM2
     221       8    10      0.42           55.534           44.447           34.126  # HGP1
     222       8     5      0.09           49.524           45.261           32.814  # HGA2
     223       8     5      0.09           49.524           43.633           32.814  # HGA2
     224       8     5      0.09           50.616           43.633           35.849  # HGA2
     225       8     5      0.09           50.616           45.261           35.849  # HGA2
     226       8     5      0.09           48.386            45.26           36.962  # HGA2
     227       8     5      0.09           48.386           43.632           36.962  # HGA2
     228       8    10     0.419           49.752           44.447           38.876  # HGP1
     229       8     9      0.09           52.357           44.447           29.639  # HGA1
     230       8     9      0.09           52.023           44.447           34.016  # HGA1
     231       8     9      0.09           52.503           44.447           35.321  # HGA1
     232       8     9      0.09           52.842           44.447           31.029  # HGA1
     233       8     2     0.143           52.484           44.447           34.321  # CG311
     234       9     6    -0.396           52.477           44.446           35.832  # OG301
     235       9     2     0.243           52.469           44.447           37.372  # CG311
     236       9     3    -0.393             51.4           44.447           38.478  # OG3C61
     237       9     2     0.029           51.391           44.447           40.018  # CG311
     238       9     9      0.09           53.101           44.447           40.763  # HGA1
     239       9     2     0.169           53.609           44.447           38.406  # CG311
     240       9     2     0.138           53.677           44.446           39.945  # CG311
     241       9     7    -0.988           55.146           44.446           38.293  # NG321
     242       9     8      0.39           55.581           44.446           37.392  # HGPAM2
     243       9     1    -0.642           55.215           44.446           39.894  # OG311
     244       9     4     0.043           49.852           44.446           40.083  # CG321
     245       9     6    -0.347           49.095           44.447           41.424  # OG301
     246       9     4     0.006           50.095           44.447           42.595  # CG321
     247       9     4     0.026            49.04           44.447           43.717  # CG321
     248       9     1     -0.64           50.213           44.447           44.715  # OG311
     249       9     8      0.39           55.708           44.447            39.12  # HGPAM2
     250       9    10      0.42           55.573           44.447           40.827  # HGP1
     251       9     5      0.09           49.549           45.261           39.588  # HGA2
     252       9     5      0.09           49.549           43.633           39.588  # HGA2
     253       9     5      0.09           50.676           43.633           42.609  # HGA2
     254       9     5      0.09           50.676           45.261           42.609  # HGA2
     255       9     5      0.09            48.46           45.261           43.749  # HGA2
     256       9     5      0.09           48.459           43.633           43.749  # HGA2
     257       9    10     0.419           49.847           44.447           45.646  # HGP1
     258       9     9      0.09           52.341           44.447           36.379  # HGA1
     259       9     9      0.09           52.064           44.447           40.757  # HGA1
     260       9     9      0.09           52.596           44.447           42.058  # HGA1
     261       9     9      0.09           52.845           44.447           37.761  # HGA1
     262       9     2     0.143           52.525           44.447            41.06  # CG311
     263      10     6    -0.396           52.512           44.447           42.569  # OG301
     264      10     2     0.243           52.485           44.447           44.109  # CG311
     265      10     3    -0.393           51.402           44.447           45.203  # OG3C61
     266      10     2     0.029           51.374           44.447           46.743  # CG311
     267      10     9      0.09           53.075           44.447            47.51  # HGA1
     268      10     2     0.169           53.612           44.447           45.158  # CG311
     269      10     2     0.138           53.661           44.447           46.698  # CG311
     270      10     7    -0.988            55.15           44.447           45.064  # NG321
     271      10     8      0.39           55.564           44.447           44.154  # HGPAM2
     272      10     1    -0.642             55.2           44.446           46.665  # OG311
     273      10     4     0.043           49.834           44.447           46.789  # CG321
     274      10     6    -0.347            49.06           44.447            48.12  # OG301
     275      10     4     0.006           50.046           44.447           49.304  # CG321
     276      10     4     0.026           48.977           44.446           50.412  # CG321
     277      10     1     -0.64           50.137           44.446           51.425  # OG311
     278      10     8      0.39           55.759           44.447           45.856  # HGPAM2
     279      10    10      0.42           55.546           44.447           47.604  # HGP1
     280      10     5      0.09           49.536           45.261           46.289  # HGA2
     281      10     5      0.09           49.536           43.633           46.289  # HGA2
     282      10     5      0.09           50.626           43.633           49.324  # HGA2
     283      10     5      0.09           50.626           45.261           49.324  # HGA2
     284      10     5      0.09           48.397           45.261           50.437  # HGA2
     285      10     5      0.09           48.397           43.632           50.437  # HGA2
     286      10    10     0.419           49.759           44.447           52.352  # HGP1
     287      10     9      0.09           52.369           44.447           43.116  # HGA1
     288      10     9      0.09           52.037           44.447           47.492  # HGA1
     289      10     9      0.09           52.514           44.446           48.798  # HGA1
     290      10     9      0.09           52.855           44.447           44.505  # HGA1
     291      10     2     0.143           52.495           44.447           47.798  # CG311
     292      11     6    -0.396           52.487           44.447           49.308  # OG301
     293      11     2     0.243           52.467           44.447           50.848  # CG311
     294      11     3    -0.393           51.389           44.447           51.947  # OG3C61
     295      11     2     0.029           51.368           44.446           53.487  # CG311
     296      11     9      0.09           53.072           44.447           54.245  # HGA1
     297      11     2     0.169             53.6           44.447           51.893  # CG311
     298      11     2     0.138           53.654           44.447           53.432  # CG311
     299      11     7    -0.988           55.136           44.447           51.792  # NG321
     300      11     8      0.39           55.546           44.447            50.88  # HGPAM2
     301      11     1    -0.642           55.194           44.447           53.394  # OG311