LAMMPS (16 Mar 2018)
  using 1 OpenMP thread(s) per MPI task
Switching to CHARMM coulomb energy conversion constant (../pair_lj_charmmfsw_coul_charmmfsh.cpp:55)
Reading potential file charmm36.cmap with DATE: 2016-09-26
Reading data file ...
  orthogonal box = (-8.091 -8.001 -8.095) to (98.033 98.085 98.036)
  5 by 4 by 8 MPI processor grid
  reading atoms ...
  113889 atoms
  scanning bonds ...
  4 = max bonds/atom
  scanning angles ...
  14 = max angles/atom
  scanning dihedrals ...
  49 = max dihedrals/atom
  reading bonds ...
  76854 bonds
  reading angles ...
  42527 angles
  reading dihedrals ...
  12595 dihedrals
Finding 1-2 1-3 1-4 neighbors ...
  special bond factors lj:   0          0          0         
  special bond factors coul: 0          0          0         
  4 = max # of 1-2 neighbors
  8 = max # of 1-3 neighbors
  18 = max # of 1-4 neighbors
  21 = max # of special neighbors
Neighbor list info ...
  update every 1 steps, delay 0 steps, check yes
  max neighbors/atom: 2000, page size: 100000
  master list distance cutoff = 14
  ghost atom cutoff = 14
  binsize = 7, bins = 16 16 16
  1 neighbor lists, perpetual/occasional/extra = 1 0 0
  (1) pair lj/charmmfsw/coul/charmmfsh, perpetual
      attributes: half, newton off
      pair build: half/bin/newtoff
      stencil: half/bin/3d/newtoff
      bin: standard
Setting up cg style minimization ...
  Unit style    : real
  Current step  : 0
Per MPI rank memory allocation (min/avg/max) = 32.72 | 33.19 | 33.57 Mbytes
Step Temp E_pair E_mol TotEng Press Volume 
       0       303.15     12483849    189339.01     12776101    2947623.4    1194851.5 
   36107       303.15   -505151.92    32485.968   -369753.04   -432.67287    1194851.5 
Loop time of 1552.7 on 160 procs for 36107 steps with 113889 atoms

98.6% CPU use with 160 MPI tasks x 1 OpenMP threads

Minimization stats:
  Stopping criterion = force tolerance
  Energy initial, next-to-last, final = 
         12673187.9012     -472665.950137     -472665.950137
  Force two-norm initial, final = 7.14026e+07 9.99816e-10
  Force max component initial, final = 2.143e+07 8.09512e-11
  Final line search alpha, max atom move = 1 8.09512e-11
  Iterations, force evaluations = 36107 71927

MPI task timing breakdown:
Section |  min time  |  avg time  |  max time  |%varavg| %total
---------------------------------------------------------------
Pair    | 744.3      | 1131.8     | 1386.7     | 410.3 | 72.89
Bond    | 2.0761     | 3.7188     | 18.791     | 127.9 |  0.24
Neigh   | 3.0158     | 3.025      | 3.0328     |   0.2 |  0.19
Comm    | 17.068     | 20.778     | 26.259     |  58.2 |  1.34
Output  | 0          | 0          | 0          |   0.0 |  0.00
Modify  | 0.017781   | 0.031755   | 0.051264   |   3.3 |  0.00
Other   |            | 393.4      |            |       | 25.33

Nlocal:    711.806 ave 775 max 557 min
Histogram: 1 2 3 4 6 13 27 57 36 11
Nghost:    9822.47 ave 10307 max 9141 min
Histogram: 4 10 8 11 19 24 25 23 30 6
Neighs:    643247 ave 742995 max 458616 min
Histogram: 3 4 3 6 13 12 47 41 26 5

Total # of neighbors = 102919576
Ave neighs/atom = 903.683
Ave special neighs/atom = 2.23869
Neighbor list builds = 131
Dangerous builds = 0
System init for write_data ...
Setting up Verlet run ...
  Unit style    : real
  Current step  : 0
  Time step     : 0.5
Per MPI rank memory allocation (min/avg/max) = 32.97 | 33.53 | 34.13 Mbytes
Step Time Xlo Xhi Ylo Yhi Zlo Zhi TotEng PotEng KinEng E_bond Temp Press E_angle E_dihed E_impro E_vdwl E_coul E_long Volume Density 
       0            0       -8.091       98.033       -8.001       98.085       -8.095       98.036   -369753.04   -472665.95    102912.91     17573.91       303.15   -432.67287    11535.879     3376.179            0    73395.062   -578546.98            0    1194851.5   0.96150009 
  500000       250000   -6.6478342    96.589834    -6.558351    96.642351    -6.651739    96.592739   -251808.09    -353679.8    101871.71    36275.775    300.08295    143.62712    22133.589    2922.6358            0    51449.382   -466461.18            0    1099987.3     1.044421 
 1000000       500000   -6.6511572    96.593157   -6.5616727    96.645673   -6.6550622    96.596062    -251906.7   -353994.75    102088.06    36361.088    300.72024    83.743666    21969.989    2890.0723            0    52438.094   -467653.99            0    1100199.7    1.0442193 
 1500000       750000   -6.6645642    96.606564    -6.575075    96.659075   -6.6684701     96.60947   -252214.59   -353853.59       101639    36346.418    299.39747   -132.69578    22050.643     2878.891            0    51555.707   -466685.25            0    1101057.2    1.0434062 
 2000000      1000000   -6.6608909    96.602891   -6.5714029    96.655403   -6.6647965    96.605797   -252166.13   -354078.29    101912.16    36150.347    300.20212    133.65904    22003.814    2854.5413            0     52372.99   -467459.98            0    1100822.2    1.0436289 
 2500000      1250000   -6.6601984    96.602198   -6.5707108    96.654711   -6.6641041    96.605104   -251821.24   -354094.33    102273.09    36636.355    301.26529   -134.46221    22009.719    2859.8612            0    51882.409   -467482.67            0    1100777.9    1.0436709 
 3000000      1500000   -6.6565877    96.598588   -6.5671014    96.651101   -6.6604931    96.601493   -252094.95   -353846.29    101751.35    35767.618     299.7284    182.53582     22014.76    2848.4675            0    51972.772   -466449.91            0      1100547    1.0438899 
 3500000      1750000   -6.6432439    96.585244   -6.5537623    96.637762   -6.6471484    96.588148   -252049.76   -353726.86    101677.09    36191.397    299.50967   -50.698544    22054.613    2821.2096            0    51475.144   -466269.22            0    1099693.9    1.0446997 
 4000000      2000000    -6.668349    96.610349   -6.5788584    96.662858   -6.6722552    96.613255   -252914.09   -354501.55    101587.45    35972.587    299.24562     53.99484    21842.431    2807.6077            0    51816.828      -466941            0    1101299.3    1.0431768 
 4500000      2250000   -6.6780913    96.620091   -6.5885973    96.672597   -6.6819981    96.622998   -251918.89   -354023.11    102104.22    36387.381    300.76785   -47.672823    21907.926    2826.2816            0    51966.213   -467110.91            0    1101922.8    1.0425866 
 5000000      2500000   -6.6899742    96.631974   -6.6004759    96.684476   -6.6938818    96.634882   -252219.77   -354043.99    101824.23    36140.763    299.94309    96.898841    22165.056    2807.8127            0    52089.245   -467246.87            0    1102683.5    1.0418673 
 5500000      2750000   -6.6557333    96.597733   -6.5662472    96.650247   -6.6596386    96.600639   -251976.52   -354178.97    102202.44    36131.807     301.0572    106.77441    21931.328     2795.935            0     51862.37   -466900.41            0    1100492.4    1.0439417 
 6000000      3000000   -6.6636301     96.60563   -6.5741412    96.658141    -6.667536    96.608536   -251902.23   -354000.78    102098.54    35963.323    300.75114   -19.836287    22234.908     2856.585            0    51707.457   -466763.05            0    1100997.4    1.0434628 
 6500000      3250000   -6.6599582    96.601958   -6.5704706    96.654471   -6.6638638    96.604864   -251770.58   -353625.19    101854.61    36469.872    300.03258    35.493897    22050.433    2805.9152            0    52240.599   -467192.01            0    1100762.6    1.0436854 
 7000000      3500000   -6.6693332    96.611333   -6.5798423    96.663842   -6.6732394    96.614239   -252206.36   -354195.42    101989.06    36342.978    300.42864   -46.069913    22038.928    2825.7544            0    52217.721    -467620.8            0    1101362.3    1.0431171 
 7500000      3750000   -6.6877309    96.629731   -6.5982334    96.682233   -6.6916384    96.632638   -251924.93   -354087.94       102163    36358.518    300.94102    40.738889    22103.903    2776.2241            0     51906.94   -467233.52            0    1102539.8     1.042003 
 8000000      4000000   -6.6412643    96.583264   -6.5517834    96.635783   -6.6451687    96.586169   -251957.66   -353692.92    101735.27     36141.94    299.68104    257.41988    22014.602    2815.9677            0    52001.669    -466667.1            0    1099567.3    1.0448199 
 8500000      4250000   -6.6566781    96.598678   -6.5671917    96.651192   -6.6605835    96.601584   -252793.55   -354919.03    102125.48    36168.028    300.83049    4.3277169    22268.216     2801.457            0    51935.971    -468092.7            0    1100552.8    1.0438844 
 9000000      4500000   -6.6274195    96.569419   -6.5379436    96.621944    -6.631323    96.572323    -251937.3   -353975.49    102038.18    36170.541    300.57333     200.9942    21893.741    2794.7407            0    51891.354   -466725.86            0    1098682.7    1.0456612 
 9500000      4750000    -6.666623    96.608623    -6.577133    96.661133    -6.670529    96.611529   -252542.88   -354041.49    101498.61    36145.284    298.98391    3.9355403      22032.3    2800.8932            0    52050.745   -467070.71            0    1101188.9    1.0432814 
10000000      5000000   -6.6474409    96.589441   -6.5579578    96.641958   -6.6513456    96.592346   -252730.78   -354562.47     101831.7    35845.946    299.96509    144.93269    22044.826    2749.8128            0    51968.298   -467171.36            0    1099962.2    1.0444449 
10500000      5250000   -6.6616042    96.603604    -6.572116    96.656116   -6.6655099     96.60651   -252077.84    -354229.5    102151.65    35977.115    300.90758   -13.700654    22003.482    2778.4138            0    51739.866   -466728.37            0    1100867.8    1.0435856 
11000000      5500000   -6.6588806    96.600881   -6.5693934    96.653393   -6.6627861    96.603786   -251750.55   -353574.88    101824.33    35944.955    299.94338   -95.096807    22352.246    2750.8002            0    51588.929   -466211.81            0    1100693.6    1.0437508 
11500000      5750000   -6.6794111    96.621411   -6.5899165    96.673917    -6.683318    96.624318   -252432.91    -354053.9    101620.99    35890.735    299.34442     101.2633    21932.857    2762.1013            0    51793.154   -466432.75            0    1102007.2    1.0425066 
12000000      6000000   -6.6466919    96.588692   -6.5572091    96.641209   -6.6505967    96.591597   -252594.22   -354175.21    101580.99    36070.416     299.2266   -4.3569302    22244.657    2794.3901            0    51904.762   -467189.43            0    1099914.3    1.0444904 
12500000      6250000   -6.6609431    96.602943   -6.5714552    96.655455   -6.6648488    96.605849   -252447.08    -354181.2    101734.12    36494.187    299.67765   -227.36142     21990.02    2749.6774            0    51840.431   -467255.51            0    1100825.6    1.0436257 
13000000      6500000   -6.6365958    96.578596   -6.5471166    96.631117   -6.6404999      96.5815   -252562.14    -354043.2    101481.06    36212.989    298.93221     -28.1314    22022.542     2763.951            0    51539.302   -466581.98            0      1099269    1.0451035 
13500000      6750000   -6.6862549    96.628255   -6.5967579    96.680758   -6.6901623    96.631162   -251824.91    -353488.6    101663.68    36069.084    299.47017   -8.4504457    22156.781    2787.9702            0    51864.912   -466367.34            0    1102445.3    1.0420923 
14000000      7000000   -6.6540904     96.59609    -6.564605    96.648605   -6.6579957    96.598996    -252272.3   -354194.48    101922.19    36123.612    300.23165    150.24034    22147.124     2797.688            0    52324.461   -467587.37            0    1100387.3    1.0440413 
