LAMMPS data file. CGCMM Style. atom_style full. Created by charmm2lammps v1.9.2 on Sun Mar  6 22:47:04 CST 2022

        718  atoms
        737  bonds
        1346  angles
        2834  dihedrals
          15  impropers

          22  atom types
          23  bond types
          46  angle types
         111  dihedral types
           1  improper types

      38.388       68.686 xlo xhi
      33.719       55.253 ylo yhi
     -28.182      129.748 zlo zhi

Masses

       1    15.9994  # OG311
       2     12.011  # CG311
       3    15.9994  # OG3C61
       4     14.007  # NG2S1
       5     12.011  # CG2O1
       6     12.011  # CG321
       7     12.011  # CG2DC1
       8    15.9994  # OG2D1
       9      1.008  # HGA2
      10     12.011  # CG331
      11    15.9994  # OG301
      12      1.008  # HGA3
      13     12.011  # CG2DC3
      14      1.008  # HGA5
      15     14.007  # NG321
      16      1.008  # HGPAM2
      17      1.008  # HGA1
      18      1.008  # HGP1
      19      1.008  # HT
      20    15.9994  # OT
      21   22.98977  # SOD
      22      35.45  # CLA

Pair Coeffs # lj/charmm/coul/long

       1           0.1921    3.14487247504           0.1921    3.14487247504  # OG311
       2            0.032    3.56359487256             0.01    3.38541512893  # CG311
       3              0.1    2.93996576986              0.1    2.93996576986  # OG3C61
       4              0.2    3.29632525712              0.2    2.76178602624  # NG2S1
       5             0.11    3.56359487256             0.11    3.56359487256  # CG2O1
       6            0.056    3.58141284692             0.01    3.38541512893  # CG321
       7            0.068    3.72395664183            0.068    3.72395664183  # CG2DC1
       8             0.12    3.02905564168             0.12    2.49451641079  # OG2D1
       9            0.035    2.38760856462            0.035    2.38760856462  # HGA2
      10            0.078    3.65268474438             0.01    3.38541512893  # CG331
      11              0.1    2.93996576986              0.1    2.93996576986  # OG301
      12            0.024    2.38760856462            0.024    2.38760856462  # HGA3
      13            0.064    3.70613866746            0.064    3.70613866746  # CG2DC3
      14            0.026    2.24506476971            0.026    2.24506476971  # HGA5
      15             0.06     3.5457768982             0.06     3.5457768982  # NG321
      16             0.01    1.55907275675             0.01    1.55907275675  # HGPAM2
      17            0.045    2.38760856462            0.045    2.38760856462  # HGA1
      18            0.046   0.400013524445            0.046   0.400013524445  # HGP1
      19            0.046   0.400013524445            0.046   0.400013524445  # HT
      20           0.1521    3.15057422683           0.1521    3.15057422683  # OT
      21           0.0469    2.51367073323           0.0469    2.51367073323  # SOD
      22             0.15    4.04468018036             0.15    4.04468018036  # CLA

Atoms # full

       1       1     1     -0.65           53.092           44.447          -18.072  # OG311
       2       1    18     0.403           54.045           44.447          -18.378  # HGP1
       3       1     2     0.294           53.061           44.447          -16.534  # CG311
       4       1     3    -0.393           51.973           44.446          -15.444  # OG3C61
       5       1     2     0.029           51.939           44.447          -13.904  # CG311
       6       1    17      0.09           53.638           44.447          -13.131  # HGA1
       7       1     2     0.169           54.184           44.447          -15.479  # CG311
       8       1     2     0.138           54.226           44.447           -13.94  # CG311
       9       1    15    -0.988           55.721           44.447          -15.568  # NG321
      10       1    16      0.39           56.171           44.447          -16.463  # HGPAM2
      11       1     1    -0.642           55.765           44.447          -13.967  # OG311
      12       1     6     0.043           50.399           44.447          -13.864  # CG321
      13       1    11    -0.347            49.62           44.447          -12.537  # OG301
      14       1     6     0.006           50.601           44.446          -11.348  # CG321
      15       1     6     0.026           49.528           44.447          -10.244  # CG321
      16       1     1     -0.64           50.684           44.447           -9.227  # OG311
      17       1    16      0.39            56.27           44.446          -14.734  # HGPAM2
      18       1    18      0.42           56.107           44.447          -13.028  # HGP1
      19       1     9      0.09           50.103           45.261          -14.364  # HGA2
      20       1     9      0.09           50.103           43.632          -14.364  # HGA2
      21       1     9      0.09           51.181           43.633          -11.324  # HGA2
      22       1     9      0.09           51.182           45.261          -11.325  # HGA2
      23       1     9      0.09           48.949            45.26          -10.221  # HGA2
      24       1     9      0.09           48.949           43.632          -10.221  # HGA2
      25       1    18     0.419           50.304           44.447           -8.301  # HGP1
      26       1    17      0.09           52.951           44.447          -17.527  # HGA1
      27       1    17      0.09             52.6           44.446          -13.154  # HGA1
      28       1    17      0.09           53.113           44.447          -11.846  # HGA1
      29       1    17      0.09           53.429           44.447          -16.135  # HGA1
      30       1     2     0.143           53.056           44.447          -12.845  # CG311
      31       2    11    -0.396           53.019           44.447          -11.335  # OG301
      32       2     2     0.243           52.967           44.447           -9.796  # CG311
      33       2     3    -0.393           51.865           44.447           -8.719  # OG3C61
      34       2     2     0.029           51.813           44.447           -7.181  # CG311
      35       2    17      0.09           53.502           44.447           -6.388  # HGA1
      36       2     2     0.057           54.077           44.447           -8.728  # CG311
      37       2     2     0.149             54.1           44.446           -7.188  # CG311
      38       2     4    -0.307           55.615           44.447           -8.798  # NG2S1
      39       2     1    -0.642            55.64           44.446           -7.196  # OG311
      40       2     6     0.043           50.272           44.446            -7.16  # CG321
      41       2    11    -0.347           49.478           44.446           -5.841  # OG301
      42       2     6     0.006           50.444           44.447           -4.642  # CG321
      43       2     6     0.026           49.357           44.447           -3.551  # CG321
      44       2     1     -0.64           50.501           44.447            -2.52  # OG311
      45       2    18     0.118           56.212           44.447           -7.996  # HGP1
      46       2    18      0.42            55.97           44.447           -6.252  # HGP1
      47       2     9      0.09           49.985           45.261           -7.664  # HGA2
      48       2     9      0.09           49.985           43.633           -7.664  # HGA2
      49       2     9      0.09           51.024           43.633           -4.611  # HGA2
      50       2     9      0.09           51.024            45.26           -4.611  # HGA2
      51       2     9      0.09           48.777           45.261           -3.536  # HGA2
      52       2     9      0.09           48.777           43.632           -3.536  # HGA2
      53       2    18     0.419           50.109           44.447           -1.599  # HGP1
      54       2    17      0.09           52.868           44.446          -10.791  # HGA1
      55       2    17      0.09           52.465           44.446           -6.422  # HGA1
      56       2    17      0.09           52.918           44.447           -5.107  # HGA1
      57       2    17      0.09            53.33           44.447           -9.393  # HGA1
      58       2     5     0.385           56.112           44.446          -10.224  # CG2O1
      59       2     7     0.298           56.566           44.447          -11.696  # CG2DC1
      60       2    10    -0.284           55.612           44.447          -12.904  # CG331
      61       2    12      0.09           56.153           44.446          -13.746  # HGA3
      62       2    12      0.09            55.04           45.266          -12.867  # HGA3
      63       2    12      0.09            55.04           43.628          -12.867  # HGA3
      64       2     8    -0.592           54.573           44.446          -10.286  # OG2D1
      65       2    13    -0.415           57.461           44.447          -12.949  # CG2DC3
      66       2    14      0.21           58.457           44.446          -12.853  # HGA5
      67       2    14      0.21           57.047           44.447          -13.859  # HGA5
      68       2     2     0.143           52.918           44.447           -6.108  # CG311
      69       3    11    -0.396           52.885           44.446           -4.598  # OG301
      70       3     2     0.243           52.841           44.447           -3.058  # CG311
      71       3     3    -0.393           51.743           44.447           -1.977  # OG3C61
      72       3     2     0.029           51.697           44.447           -0.437  # CG311
      73       3    17      0.09           53.388           44.446            0.346  # HGA1
      74       3     2     0.057           53.955           44.447           -1.995  # CG311
      75       3     2     0.149           53.984           44.446           -0.456  # CG311
      76       3     4    -0.307           55.493           44.447           -2.072  # NG2S1
      77       3     1    -0.642           55.524           44.446            -0.47  # OG311
      78       3     6     0.043           50.158           44.447           -0.412  # CG321
      79       3    11    -0.347           49.368           44.447            0.911  # OG301
      80       3     6     0.006            50.34           44.447            2.106  # CG321
      81       3     6     0.026           49.258           44.447            3.202  # CG321
      82       3     1     -0.64           50.405           44.447            4.229  # OG311
      83       3    18     0.118           56.094           44.447           -1.272  # HGP1
      84       3    18      0.42           55.859           44.447            0.472  # HGP1
      85       3     9      0.09           49.865           45.261           -0.914  # HGA2
      86       3     9      0.09           49.865           43.632           -0.914  # HGA2
      87       3     9      0.09           50.921           43.633            2.134  # HGA2
      88       3     9      0.09           50.921           45.261            2.134  # HGA2
      89       3     9      0.09           48.676            45.26             3.22  # HGA2
      90       3     9      0.09           48.677           43.633            3.219  # HGA2
      91       3    18     0.419           50.018           44.446            5.151  # HGP1
      92       3    17      0.09           52.737           44.447           -4.053  # HGA1
      93       3    17      0.09           52.351           44.447             0.32  # HGA1
      94       3    17      0.09           52.814           44.446            1.629  # HGA1
      95       3    17      0.09           53.206           44.446           -2.659  # HGA1
      96       3     5     0.385           55.984           44.447             -3.5  # CG2O1
      97       3     7     0.298           56.433           44.447           -4.974  # CG2DC1
      98       3    10    -0.284           55.472           44.447           -6.178  # CG331
      99       3    12      0.09           56.009           44.447           -7.022  # HGA3
     100       3    12      0.09             54.9           45.266           -6.137  # HGA3
     101       3    12      0.09             54.9           43.628           -6.138  # HGA3
     102       3     8    -0.592           54.446           44.447           -3.556  # OG2D1
     103       3    13    -0.415           57.322           44.447           -6.231  # CG2DC3
     104       3    14      0.21           58.318           44.447           -6.139  # HGA5
     105       3    14      0.21           56.903           44.447           -7.139  # HGA5
     106       3     2     0.143           52.807           44.447            0.631  # CG311
     107       4    11    -0.396           52.781           44.447             2.14  # OG301
     108       4     2     0.243           52.755           44.447             3.68  # CG311
     109       4     3    -0.393           51.671           44.447            4.774  # OG3C61
     110       4     2     0.029           51.642           44.447            6.314  # CG311
     111       4    17      0.09           53.344           44.447            7.079  # HGA1
     112       4     2     0.169           53.882           44.447            4.729  # CG311
     113       4     2     0.138           53.931           44.447            6.268  # CG311
     114       4    15    -0.988           55.418           44.446            4.634  # NG321
     115       4    16      0.39           55.864           44.446            3.739  # HGPAM2
     116       4     1    -0.642            55.47           44.447            6.236  # OG311
     117       4     6     0.043           50.104           44.447            6.358  # CG321
     118       4    11    -0.347            49.33           44.447            7.691  # OG301
     119       4     6     0.006           50.316           44.447            8.874  # CG321
     120       4     6     0.026           49.246           44.446            9.983  # CG321
     121       4     1     -0.64           50.407           44.447           10.994  # OG311
     122       4    16      0.39           55.972           44.446            5.467  # HGPAM2
     123       4    18      0.42           55.815           44.447            7.175  # HGP1
     124       4     9      0.09           49.808           45.261             5.86  # HGA2
     125       4     9      0.09           49.808           43.633             5.86  # HGA2
     126       4     9      0.09           50.897           43.632            8.895  # HGA2
     127       4     9      0.09           50.897           45.261            8.895  # HGA2
     128       4     9      0.09           48.666           45.261           10.008  # HGA2
     129       4     9      0.09           48.666           43.633           10.008  # HGA2
     130       4    18     0.419           50.031           44.447           11.921  # HGP1
     131       4    17      0.09           52.642           44.447            2.686  # HGA1
     132       4    17      0.09           52.307           44.447            7.061  # HGA1
     133       4    17      0.09           52.825           44.447            8.367  # HGA1
     134       4    17      0.09           53.125           44.447            4.077  # HGA1
     135       4     2     0.143           52.765           44.446            7.369  # CG311
     136       5    11    -0.396           52.733           44.447            8.879  # OG301
     137       5     2     0.243           52.687           44.446           10.418  # CG311
     138       5     3    -0.393            51.59           44.447           11.499  # OG3C61
     139       5     2     0.029           51.543           44.447           13.038  # CG311
     140       5    17      0.09           53.234           44.446           13.824  # HGA1
     141       5     2     0.057           53.802           44.447           11.481  # CG311
     142       5     2     0.149           53.829           44.447           13.021  # CG311
     143       5     4    -0.307           55.339           44.446           11.405  # NG2S1
     144       5     1    -0.642            55.37           44.447           13.007  # OG311
     145       5     6     0.043           50.002           44.447           13.064  # CG321
     146       5    11    -0.347           49.213           44.447           14.386  # OG301
     147       5     6     0.006           50.185           44.447           15.581  # CG321
     148       5     6     0.026           49.101           44.447           16.677  # CG321
     149       5     1     -0.64           50.249           44.447           17.704  # OG311
     150       5    18     0.118           55.941           44.447           12.204  # HGP1
     151       5    18      0.42           55.705           44.446           13.949  # HGP1
     152       5     9      0.09           49.713           45.261           12.561  # HGA2
     153       5     9      0.09           49.713           43.632           12.562  # HGA2
     154       5     9      0.09           50.765           43.632           15.609  # HGA2
     155       5     9      0.09           50.765           45.261           15.609  # HGA2
     156       5     9      0.09            48.52            45.26           16.695  # HGA2
     157       5     9      0.09           48.521           43.633           16.695  # HGA2
     158       5    18     0.419           49.861           44.447           18.626  # HGP1
     159       5    17      0.09           52.583           44.447            9.423  # HGA1
     160       5    17      0.09           52.198           44.447           13.794  # HGA1
     161       5    17      0.09           52.655           44.446           15.106  # HGA1
     162       5    17      0.09           53.053           44.446           10.817  # HGA1
     163       5     5     0.385           55.831           44.447            9.977  # CG2O1
     164       5     7     0.298           56.281           44.447            8.504  # CG2DC1
     165       5    10    -0.284           55.321           44.447            7.299  # CG331
     166       5    12      0.09           55.857           44.446            6.455  # HGA3
     167       5    12      0.09           54.749           45.266            7.339  # HGA3
     168       5    12      0.09           54.749           43.628            7.339  # HGA3
     169       5     8    -0.592           54.293           44.447            9.921  # OG2D1
     170       5    13    -0.415           57.169           44.447            7.247  # CG2DC3
     171       5    14      0.21           58.165           44.447            7.339  # HGA5
     172       5    14      0.21           56.751           44.447            6.339  # HGA5
     173       5     2     0.143           52.652           44.447           14.106  # CG311
     174       6    11    -0.396           52.625           44.447           15.616  # OG301
     175       6     2     0.243           52.587           44.447           17.155  # CG311
     176       6     3    -0.393           51.494           44.447            18.24  # OG3C61
     177       6     2     0.029           51.454           44.447            19.78  # CG311
     178       6    17      0.09           53.147           44.446           20.559  # HGA1
     179       6     2     0.057           53.705           44.447           18.214  # CG311
     180       6     2     0.149           53.741           44.447           19.753  # CG311
     181       6     4    -0.307           55.243           44.447           18.131  # NG2S1
     182       6     1    -0.642           55.281           44.447           19.733  # OG311
     183       6     6     0.043           49.914           44.447           19.814  # CG321
     184       6    11    -0.347            49.13           44.447           21.139  # OG301
     185       6     6     0.006           50.106           44.447            22.33  # CG321
     186       6     6     0.026           49.027           44.447            23.43  # CG321
     187       6     1     -0.64            50.18           44.447           24.452  # OG311
     188       6    18     0.118           55.847           44.447           18.928  # HGP1
     189       6    18      0.42           55.619           44.447           20.674  # HGP1
     190       6     9      0.09            49.62           45.261           19.312  # HGA2
     191       6     9      0.09           49.621           43.633           19.311  # HGA2
     192       6     9      0.09           50.687           43.633           22.356  # HGA2
     193       6     9      0.09           50.687           45.261           22.355  # HGA2
     194       6     9      0.09           48.447            45.26            23.45  # HGA2
     195       6     9      0.09           48.447           43.633           23.449  # HGA2
     196       6    18     0.419           49.797           44.446           25.375  # HGP1
     197       6    17      0.09           52.481           44.447           16.161  # HGA1
     198       6    17      0.09           52.112           44.447           20.532  # HGA1
     199       6    17      0.09           52.578           44.447           21.845  # HGA1
     200       6    17      0.09           52.954           44.447           17.554  # HGA1
     201       6     5     0.385           55.729           44.447           16.702  # CG2O1
     202       6     7     0.298           56.172           44.447           15.227  # CG2DC1
     203       6    10    -0.284           55.207           44.447           14.027  # CG331
     204       6    12      0.09           55.739           44.447           13.181  # HGA3
     205       6    12      0.09           54.634           45.266           14.069  # HGA3
     206       6    12      0.09           54.635           43.628            14.07  # HGA3
     207       6     8    -0.592            54.19           44.447           16.653  # OG2D1
     208       6    13    -0.415           57.056           44.447           13.966  # CG2DC3
     209       6    14      0.21           58.052           44.447           14.053  # HGA5
     210       6    14      0.21           56.633           44.446           13.059  # HGA5
     211       6     2     0.143           52.568           44.447           20.844  # CG311
     212       7    11    -0.396           52.547           44.447           22.355  # OG301
     213       7     2     0.243           52.516           44.447           23.895  # CG311
     214       7     3    -0.393           51.427           44.447           24.984  # OG3C61
     215       7     2     0.029           51.393           44.446           26.524  # CG311
     216       7    17      0.09           53.093           44.447           27.297  # HGA1
     217       7     2     0.057           53.638           44.447           24.948  # CG311
     218       7     2     0.149            53.68           44.447           26.488  # CG311
     219       7     4    -0.307           55.176           44.447           24.858  # NG2S1
     220       7     1    -0.642            55.22           44.447           26.461  # OG311
     221       7     6     0.043           49.853           44.446           26.563  # CG321
     222       7    11    -0.347           49.075           44.446           27.892  # OG301
     223       7     6     0.006           50.056           44.447           29.079  # CG321
     224       7     6     0.026           48.983           44.447           30.183  # CG321
     225       7     1     -0.64           50.139           44.447           31.201  # OG311
     226       7    18     0.118           55.783           44.447           25.653  # HGP1
     227       7    18      0.42           55.562           44.446             27.4  # HGP1
     228       7     9      0.09           49.558            45.26           26.064  # HGA2
     229       7     9      0.09           49.558           43.633           26.063  # HGA2
     230       7     9      0.09           50.637           43.633           29.103  # HGA2
     231       7     9      0.09           50.637           45.261           29.103  # HGA2
     232       7     9      0.09           48.403            45.26           30.206  # HGA2
     233       7     9      0.09           48.404           43.633           30.205  # HGA2
     234       7    18     0.419           49.759           44.446           32.126  # HGP1
     235       7    17      0.09           52.405           44.447           22.901  # HGA1
     236       7    17      0.09           52.054           44.447           27.276  # HGA1
     237       7    17      0.09           52.524           44.446           28.583  # HGA1
     238       7    17      0.09           52.884           44.447           24.291  # HGA1
     239       7     5     0.385           55.655           44.447           23.426  # CG2O1
     240       7     7     0.298           56.092           44.446            21.95  # CG2DC1
     241       7    10    -0.284           55.122           44.447           20.753  # CG331
     242       7    12      0.09           55.652           44.447           19.905  # HGA3
     243       7    12      0.09           54.549           45.265           20.797  # HGA3
     244       7    12      0.09            54.55           43.628           20.797  # HGA3
     245       7     8    -0.592           54.116           44.446           23.384  # OG2D1
     246       7    13    -0.415            56.97           44.447           20.685  # CG2DC3
     247       7    14      0.21           57.967           44.447           20.767  # HGA5
     248       7    14      0.21           56.544           44.447            19.78  # HGA5
     249       7     2     0.143           52.511           44.447           27.583  # CG311
     250       8    11    -0.396           52.498           44.447           29.093  # OG301
     251       8     2     0.243           52.472           44.447           30.633  # CG311
     252       8     3    -0.393           51.389           44.447           31.727  # OG3C61
     253       8     2     0.029           51.362           44.446           33.267  # CG311
     254       8    17      0.09           53.063           44.446           34.032  # HGA1
     255       8     2     0.057           53.599           44.446           31.681  # CG311
     256       8     2     0.149           53.648           44.447            33.22  # CG311
     257       8     4    -0.307           55.137           44.447           31.586  # NG2S1
     258       8     1    -0.642           55.188           44.446           33.187  # OG311
     259       8     6     0.043           49.822           44.447           33.313  # CG321
     260       8    11    -0.347           49.049           44.447           34.645  # OG301
     261       8     6     0.006           50.036           44.447           35.827  # CG321
     262       8     6     0.026           48.966           44.447           36.937  # CG321
     263       8     1     -0.64           50.127           44.447            37.95  # OG311
     264       8    18     0.118           55.747           44.447           32.378  # HGP1
     265       8    18      0.42           55.534           44.447           34.126  # HGP1
     266       8     9      0.09           49.524           45.261           32.814  # HGA2
     267       8     9      0.09           49.524           43.633           32.814  # HGA2
     268       8     9      0.09           50.616           43.633           35.849  # HGA2
     269       8     9      0.09           50.616           45.261           35.849  # HGA2
     270       8     9      0.09           48.386            45.26           36.962  # HGA2
     271       8     9      0.09           48.386           43.632           36.962  # HGA2
     272       8    18     0.419           49.752           44.447           38.876  # HGP1
     273       8    17      0.09           52.357           44.447           29.639  # HGA1
     274       8    17      0.09           52.023           44.447           34.016  # HGA1
     275       8    17      0.09           52.503           44.447           35.321  # HGA1
     276       8    17      0.09           52.842           44.447           31.029  # HGA1
     277       8     5     0.385           55.611           44.447           30.153  # CG2O1
     278       8     7     0.298           56.041           44.447           28.674  # CG2DC1
     279       8    10    -0.284           55.066           44.447           27.481  # CG331
     280       8    12      0.09           55.592           44.446           26.631  # HGA3
     281       8    12      0.09           54.494           45.266           27.529  # HGA3
     282       8    12      0.09           54.495           43.628           27.528  # HGA3
     283       8     8    -0.592           54.071           44.447           30.116  # OG2D1
     284       8    13    -0.415           56.913           44.446           27.405  # CG2DC3
     285       8    14      0.21           57.911           44.447           27.484  # HGA5
     286       8    14      0.21           56.484           44.447           26.502  # HGA5
     287       8     2     0.143           52.484           44.447           34.321  # CG311
     288       9    11    -0.396           52.477           44.446           35.832  # OG301
     289       9     2     0.243           52.469           44.447           37.372  # CG311
     290       9     3    -0.393             51.4           44.447           38.478  # OG3C61
     291       9     2     0.029           51.391           44.447           40.018  # CG311