LAMMPS data file. CGCMM Style. atom_style full. Created by charmm2lammps v1.9.2 on Fri May 20 21:07:12 CST 2022

        5832  atoms
        5825  bonds
       10418  angles
       18398  dihedrals
         752  impropers
         260  crossterms

          55  atom types
          91  bond types
         207  angle types
         490  dihedral types
          22  improper types

      -2.426      105.154 xlo xhi
      -2.153      108.809 ylo yhi
      -7.865      106.902 zlo zhi

Masses

       1    15.9994  # OG311
       2     12.011  # CG311
       3    15.9994  # OG3C61
       4     14.007  # NG2S1
       5     12.011  # CG2O1
       6     12.011  # CG321
       7     12.011  # CG2DC1
       8    15.9994  # OG2D1
       9      1.008  # HGA2
      10     12.011  # CG331
      11    15.9994  # OG301
      12      1.008  # HGA3
      13     12.011  # CG2DC3
      14      1.008  # HGA5
      15     14.007  # NG321
      16      1.008  # HGPAM2
      17      1.008  # HGA1
      18      1.008  # HGP1
      19      1.008  # HT
      20    15.9994  # OT
      21   22.98977  # SOD
      22      1.008  # H
      23      1.008  # HC
      24      1.008  # HP
      25      1.008  # HB1
      26      1.008  # HB2
      27      1.008  # HR1
      28      1.008  # HR3
      29      1.008  # HA1
      30      1.008  # HA2
      31      1.008  # HA3
      32     12.011  # C
      33     12.011  # CA
      34     12.011  # CT1
      35     12.011  # CT2
      36     12.011  # CT2A
      37     12.011  # CT3
      38     12.011  # CPH1
      39     12.011  # CPH2
      40     12.011  # CPT
      41     12.011  # CY
      42     12.011  # CC
      43     12.011  # CAI
      44     14.007  # NR1
      45     14.007  # NR2
      46     14.007  # NH1
      47     14.007  # NH3
      48     14.007  # NC2
      49     14.007  # NY
      50    15.9994  # O
      51    15.9994  # OC
      52    15.9994  # OH1
      53      32.06  # S
      54     12.011  # CG2O2
      55     14.007  # NG2P1

Pair Coeffs # lj/charmm/coul/long

       1           0.1921    3.14487247504           0.1921    3.14487247504  # OG311
       2            0.032    3.56359487256             0.01    3.38541512893  # CG311
       3              0.1    2.93996576986              0.1    2.93996576986  # OG3C61
       4              0.2    3.29632525712              0.2    2.76178602624  # NG2S1
       5             0.11    3.56359487256             0.11    3.56359487256  # CG2O1
       6            0.056    3.58141284692             0.01    3.38541512893  # CG321
       7            0.068    3.72395664183            0.068    3.72395664183  # CG2DC1
       8             0.12    3.02905564168             0.12    2.49451641079  # OG2D1
       9            0.035    2.38760856462            0.035    2.38760856462  # HGA2
      10            0.078    3.65268474438             0.01    3.38541512893  # CG331
      11              0.1    2.93996576986              0.1    2.93996576986  # OG301
      12            0.024    2.38760856462            0.024    2.38760856462  # HGA3
      13            0.064    3.70613866746            0.064    3.70613866746  # CG2DC3
      14            0.026    2.24506476971            0.026    2.24506476971  # HGA5
      15             0.06     3.5457768982             0.06     3.5457768982  # NG321
      16             0.01    1.55907275675             0.01    1.55907275675  # HGPAM2
      17            0.045    2.38760856462            0.045    2.38760856462  # HGA1
      18            0.046   0.400013524445            0.046   0.400013524445  # HGP1
      19            0.046   0.400013524445            0.046   0.400013524445  # HT
      20           0.1521    3.15057422683           0.1521    3.15057422683  # OT
      21           0.0469    2.51367073323           0.0469    2.51367073323  # SOD
      22            0.046   0.400013524445            0.046   0.400013524445  # H
      23            0.046   0.400013524445            0.046   0.400013524445  # HC
      24             0.03    2.42003727796             0.03    2.42003727796  # HP
      25            0.022    2.35197261589            0.022    2.35197261589  # HB1
      26            0.028    2.38760856462            0.028    2.38760856462  # HB2
      27            0.046    1.60361769265            0.046    1.60361769265  # HR1
      28           0.0078    2.61567863646           0.0078    2.61567863646  # HR3
      29            0.045    2.38760856462            0.045    2.38760856462  # HA1
      30            0.034    2.38760856462            0.034    2.38760856462  # HA2
      31            0.024    2.38760856462            0.024    2.38760856462  # HA3
      32             0.11    3.56359487256             0.11    3.56359487256  # C
      33             0.07    3.55005321205             0.07    3.55005321205  # CA
      34            0.032    3.56359487256             0.01    3.38541512893  # CT1
      35            0.056    3.58141284692             0.01    3.38541512893  # CT2
      36            0.056    3.58141284692             0.01    3.38541512893  # CT2A
      37            0.078    3.63486677001             0.01    3.38541512893  # CT3
      38             0.05    3.20723538531             0.05    3.20723538531  # CPH1
      39             0.05    3.20723538531             0.05    3.20723538531  # CPH2
      40            0.099    3.31414323148            0.099    3.31414323148  # CPT
      41            0.073     3.5457768982            0.073     3.5457768982  # CY
      42             0.07    3.56359487256             0.07    3.56359487256  # CC
      43            0.073     3.5457768982            0.073     3.5457768982  # CAI
      44              0.2    3.29632525712              0.2    3.29632525712  # NR1
      45              0.2    3.29632525712              0.2    3.29632525712  # NR2
      46              0.2    3.29632525712              0.2    2.76178602624  # NH1
      47              0.2    3.29632525712              0.2    3.29632525712  # NH3
      48              0.2    3.29632525712              0.2    3.29632525712  # NC2
      49              0.2    3.29632525712              0.2    3.29632525712  # NY
      50             0.12    3.02905564168             0.12    2.49451641079  # O
      51             0.12    3.02905564168             0.12    3.02905564168  # OC
      52           0.1521    3.15378146222           0.1521    3.15378146222  # OH1
      53             0.45    3.56359487256             0.45    3.56359487256  # S
      54            0.098    3.02905564168            0.098    3.02905564168  # CG2O2
      55              0.2    3.29632525712              0.2    3.29632525712  # NG2P1

Atoms # full

       1       1    47      -0.3            97.44           36.462            2.375  # NH3
       2       1    23      0.33           98.298           36.223             1.92  # HC
       3       1    23      0.33           97.347           37.456            2.427  # HC
       4       1    23      0.33           96.668           36.073            1.872  # HC
       5       1    34      0.21           97.451           35.917             3.72  # CT1
       6       1    25       0.1           97.491           34.837             3.64  # HB1
       7       1    35     -0.18           98.663           36.448            4.486  # CT2
       8       1    30      0.09           99.564           36.227            3.868  # HA2
       9       1    30      0.09           98.593           37.557            4.551  # HA2
      10       1    35     -0.18           98.834            35.83            5.866  # CT2
      11       1    30      0.09           97.874           35.915            6.425  # HA2
      12       1    30      0.09           99.057           34.744            5.752  # HA2
      13       1    35     -0.18            99.94           36.541            6.628  # CT2
      14       1    30      0.09          100.906           36.348            6.108  # HA2
      15       1    30      0.09           99.747           37.638            6.577  # HA2
      16       1    35      0.21          100.007           36.081            8.081  # CT2
      17       1    30      0.05          100.179           34.983            8.135  # HA2
      18       1    30      0.05          100.837           36.594            8.615  # HA2
      19       1    47      -0.3           98.774           36.371            8.795  # NH3
      20       1    23      0.33           98.888           36.183            9.807  # HC
      21       1    23      0.33           97.973           35.778            8.441  # HC
      22       1    23      0.33           98.489           37.373            8.656  # HC
      23       1    32      0.51           96.149           36.272            4.428  # C
      24       1    50     -0.51           95.338           35.381             4.68  # O
      25       2    46     -0.47           95.875           37.557            4.704  # NH1
      26       2    22      0.31           96.433           38.324              4.4  # H
      27       2    34      0.07           94.706           37.948            5.493  # CT1
      28       2    25      0.09           94.765           37.394            6.421  # HB1
      29       2    36     -0.18           94.762           39.431            5.859  # CT2A
      30       2    30      0.09           95.206           39.984            4.999  # HA2
      31       2    30      0.09           93.729           39.829            5.978  # HA2
      32       2    35     -0.28           95.574           39.778            7.115  # CT2
      33       2    30      0.09           95.565           40.872            7.269  # HA2
      34       2    30      0.09           95.152            39.28            8.011  # HA2
      35       2    42      0.62           97.058           39.431            7.098  # CC
      36       2    51     -0.76           97.534           38.824            8.059  # OC
      37       2    51     -0.76           97.745           39.771            6.131  # OC
      38       2    32      0.51            93.36            37.62            4.855  # C
      39       2    50     -0.51           92.437           37.137            5.522  # O
      40       3    46     -0.47           93.252           37.855            3.545  # NH1
      41       3    22      0.31           93.982           38.285            3.014  # H
      42       3    34      0.07            92.07            37.51            2.767  # CT1
      43       3    25      0.09           91.232           37.926             3.31  # HB1
      44       3    34      0.14           92.206           38.121             1.36  # CT1
      45       3    29      0.09           91.523           37.533            0.699  # HA1
      46       3    52     -0.66           93.556           37.906            0.951  # OH1
      47       3    22      0.43           93.668           38.308            0.071  # H
      48       3    37     -0.27            91.87           39.605            1.346  # CT3
      49       3    31      0.09           91.863           39.999            0.308  # HA3
      50       3    31      0.09           90.864           39.779            1.783  # HA3
      51       3    31      0.09            92.61           40.189            1.935  # HA3
      52       3    32      0.51           91.847               36            2.713  # C
      53       3    50     -0.51           90.737           35.512            2.942  # O
      54       4    46     -0.47           92.942           35.272            2.457  # NH1
      55       4    22      0.31           93.818             35.7            2.243  # H
      56       4    34      0.07            92.97           33.814            2.463  # CT1
      57       4    25      0.09           92.286           33.487             1.69  # HB1
      58       4    35     -0.18           94.392           33.329            2.166  # CT2
      59       4    30      0.09           94.706            33.81             1.21  # HA2
      60       4    30      0.09           95.084           33.712            2.949  # HA2
      61       4    35     -0.14            94.55           31.821            2.019  # CT2
      62       4    30      0.09           94.137           31.301            2.909  # HA2
      63       4    30      0.09           93.981            31.47             1.13  # HA2
      64       4    53     -0.09           96.277           31.305            1.836  # S
      65       4    37     -0.22           96.457           31.477            0.084  # CT3
      66       4    31      0.09            97.48           31.188            -0.24  # HA3
      67       4    31      0.09           95.732            30.83           -0.457  # HA3
      68       4    31      0.09           96.282           32.527           -0.235  # HA3
      69       4    32      0.51           92.479           33.236            3.787  # C
      70       4    50     -0.51           91.566           32.413            3.786  # O
      71       5    46     -0.47           93.032           33.683            4.922  # NH1
      72       5    22      0.31           93.765           34.361            4.935  # H
      73       5    34      0.07           92.613           33.219            6.243  # CT1
      74       5    25      0.09           92.759           32.146             6.24  # HB1
      75       5    35     -0.18           93.475           33.844            7.341  # CT2
      76       5    30      0.09           93.439           34.948             7.19  # HA2
      77       5    30      0.09           93.006           33.651            8.333  # HA2
      78       5    35     -0.18           94.929           33.382            7.335  # CT2
      79       5    30      0.09           94.986           32.281            7.471  # HA2
      80       5    30      0.09           95.417           33.632             6.37  # HA2
      81       5    42     0.514            95.76           33.985            8.459  # CC
      82       5    50     -0.49           96.503           34.949            8.281  # O
      83       5    46    -0.386           95.676           33.442            9.665  # NH1
      84       5    22      0.31           95.085           32.672            9.794  # H
      85       5     5     0.347           96.196           33.829           10.419  # CG2O1
      86       5     8    -0.568            95.94           34.718           10.798  # OG2D1
      87       5     7     0.282           96.974           33.329           10.798  # CG2DC1
      88       5    13    -0.415           97.832           33.808           10.988  # CG2DC3
      89       5    14      0.21           98.683           33.292           11.083  # HGA5
      90       5    14      0.21           97.838           34.804           11.083  # HGA5
      91       5    10    -0.284           96.896           32.351           10.988  # CG331
      92       5    12      0.09           95.928           32.108            11.05  # HGA3
      93       5    12      0.09           97.354           32.149           11.854  # HGA3
      94       5    12      0.09           97.329           31.839           10.246  # HGA3
      95       5    32      0.51           91.141           33.481            6.544  # C
      96       5    50     -0.51           90.439           32.593            7.037  # O
      97       6    46     -0.47           90.662           34.687            6.208  # NH1
      98       6    22      0.31           91.222           35.406            5.798  # H
      99       6    34      0.07           89.267            35.06            6.413  # CT1
     100       6    25      0.09           89.072           34.876            7.461  # HB1
     101       6    35      0.05           89.061           36.531            6.064  # CT2
     102       6    30      0.09           89.283           36.664             4.98  # HA2
     103       6    30      0.09           87.997           36.821            6.218  # HA2
     104       6    52     -0.66           89.926           37.385            6.805  # OH1
     105       6    22      0.43           89.901           38.252             6.38  # H
     106       6    32      0.51             88.3           34.191            5.611  # C
     107       6    50     -0.51           87.345           33.638            6.167  # O
     108       7    46     -0.47           88.555           34.022            4.306  # NH1
     109       7    22      0.31           89.313           34.458            3.825  # H
     110       7    34      0.07           87.726           33.168            3.467  # CT1
     111       7    25      0.09           86.706           33.483            3.645  # HB1
     112       7    35     -0.18           88.042            33.38            1.987  # CT2
     113       7    30      0.09           89.151           33.341            1.878  # HA2
     114       7    30      0.09           87.645           32.518            1.405  # HA2
     115       7    34     -0.09           87.563            34.68            1.346  # CT1
     116       7    29      0.09           87.864           35.506            2.035  # HA1
     117       7    37     -0.27            88.22           34.882           -0.005  # CT3
     118       7    31      0.09           87.835           35.804           -0.492  # HA3
     119       7    31      0.09           89.321            34.98            0.106  # HA3
     120       7    31      0.09            88.01           34.022           -0.676  # HA3
     121       7    37     -0.27           86.046           34.702            1.219  # CT3
     122       7    31      0.09            85.71           35.661            0.768  # HA3
     123       7    31      0.09           85.677            33.88            0.574  # HA3
     124       7    31      0.09            85.57           34.603            2.219  # HA3
     125       7    32      0.51           87.822           31.692             3.83  # C
     126       7    50     -0.51             86.8           31.004            3.856  # O
     127       8    46     -0.47           89.021           31.201            4.169  # NH1
     128       8    22      0.31           89.851           31.758            4.161  # H
     129       8    34      0.07           89.226           29.815            4.579  # CT1
     130       8    25      0.09           88.845           29.212            3.761  # HB1
     131       8    35     -0.18           90.704           29.534            4.848  # CT2
     132       8    30      0.09           91.292           29.976            4.014  # HA2
     133       8    30      0.09           91.027           30.033            5.784  # HA2
     134       8    42     0.505           91.046           28.051            4.914  # CC
     135       8    50    -0.502           91.276           27.407            3.891  # O
     136       8    46   -0.3755           91.113           27.442             6.09  # NH1
     137       8    22      0.31           90.942           27.955            6.906  # H
     138       8     5    0.3575           91.306           26.467            6.136  # CG2O1
     139       8     7     0.282           90.554           25.809            6.159  # CG2DC1
     140       8    10    -0.284           89.607           26.131            6.171  # CG331
     141       8    12      0.09           89.604           27.131            6.174  # HGA3
     142       8    12      0.09           89.155           25.786            6.993  # HGA3
     143       8    12      0.09           89.138           25.792            5.355  # HGA3
     144       8    13    -0.415           90.748           24.828            6.171  # CG2DC3
     145       8    14      0.21           89.995           24.169            6.176  # HGA5
     146       8    14      0.21           91.694           24.505            6.176  # HGA5
     147       8     8    -0.568           92.253           26.145            6.159  # OG2D1
     148       8    32      0.51           88.425           29.461            5.825  # C
     149       8    50     -0.51           87.824           28.389            5.878  # O
     150       9    46     -0.47           88.395           30.352            6.827  # NH1
     151       9    22      0.31           88.903            31.21            6.839  # H
     152       9    34      0.07           87.594           30.148            8.032  # CT1
     153       9    25      0.09           87.933           29.214            8.466  # HB1
     154       9    36     -0.28           87.801           31.302            9.017  # CT2A
     155       9    30      0.09           88.868           31.341            9.314  # HA2
     156       9    30      0.09           87.534           32.269            8.547  # HA2
     157       9    42      0.62           86.995           31.178           10.307  # CC
     158       9    51     -0.76           87.381           30.396           11.175  # OC
     159       9    51     -0.76           85.997           31.884           10.447  # OC
     160       9    32      0.51           86.107           29.983            7.738  # C
     161       9    50     -0.51           85.464           29.082            8.282  # O
     162      10    46     -0.47           85.562           30.846            6.872  # NH1
     163      10    22      0.31           86.099           31.587            6.475  # H
     164      10    34      0.07           84.168           30.757            6.461  # CT1
     165      10    25      0.09           83.563            30.71            7.359  # HB1
     166      10    35     -0.18           83.768           31.988            5.649  # CT2
     167      10    30      0.09           84.528           32.092            4.838  # HA2
     168      10    30      0.09           82.799           31.797            5.137  # HA2
     169      10    35     -0.18           83.723           33.294             6.44  # CT2
     170      10    30      0.09           84.723           33.466            6.896  # HA2
     171      10    30      0.09           83.567           34.141            5.732  # HA2
     172      10    35       0.2           82.598           33.317            7.474  # CT2
     173      10    30      0.09           82.675           32.416            8.125  # HA2
     174      10    30      0.09           82.651           34.227            8.116  # HA2
     175      10    48    -0.672           81.278           33.333            6.856  # NC2
     176      10    23      0.44           80.884           32.476            6.584  # HC
     177      10    32     0.617           80.583           34.454            6.642  # C
     178      10    48    -0.737            79.39           34.353            6.065  # NC2
     179      10    23     0.438           79.075           33.432            5.779  # HC
     180      10    23     0.438           78.771           35.131            5.888  # HC
     181      10    55   -1.3275            81.07           35.647            6.968  # NG2P1
     182      10    23     0.475           81.976           35.714             7.38  # HC
     183      10     5    1.2585           80.602           36.439            6.597  # CG2O1
     184      10     7     0.289           81.112           37.278             6.41  # CG2DC1
     185      10    10    -0.284           82.107           37.249            6.317  # CG331
     186      10    12      0.09           82.403           36.294            6.287  # HGA3
     187      10    12      0.09           82.522            37.71            7.102  # HGA3
     188      10    12      0.09           82.369           37.714            5.471  # HGA3
     189      10     8     -0.59           79.621           36.397             6.41  # OG2D1
     190      10    13    -0.415           80.626           38.148            6.317  # CG2DC3
     191      10    14      0.21            81.14           39.005             6.27  # HGA5
     192      10    14      0.21           79.628            38.16             6.27  # HGA5
     193      10    32      0.51           83.868            29.49            5.666  # C
     194      10    50     -0.51           82.969           28.726            6.028  # O
     195      11    46     -0.47           84.646           29.229            4.607  # NH1
     196      11    22      0.31           85.411            29.81            4.337  # H
     197      11    34      0.07           84.444           28.067             3.75  # CT1
     198      11    25      0.09            83.42           28.133            3.406  # HB1
     199      11    35     -0.18           85.365            28.11            2.527  # CT2
     200      11    30      0.09            86.41           28.195            2.905  # HA2
     201      11    30      0.09           85.308           27.133            1.997  # HA2
     202      11    34     -0.09            85.18           29.225            1.495  # CT1
     203      11    29      0.09           85.234           30.189            2.057  # HA1
     204      11    37     -0.27           86.292           29.174            0.461  # CT3
     205      11    31      0.09           86.136           29.951           -0.318  # HA3
     206      11    31      0.09           87.279           29.352            0.939  # HA3
     207      11    31      0.09           86.318           28.182           -0.039  # HA3
     208      11    37     -0.27           83.819           29.148            0.822  # CT3
     209      11    31      0.09           83.702           29.978            0.092  # HA3
     210      11    31      0.09           83.687           28.195            0.272  # HA3
     211      11    31      0.09           83.007           29.232            1.576  # HA3
     212      11    32      0.51             84.6           26.738            4.478  # C
     213      11    50     -0.51           83.785           25.836            4.273  # O
     214      12    46     -0.47           85.601           26.598            5.361  # NH1
     215      12    22      0.31           86.294           27.304            5.502  # H
     216      12    34      0.07           85.751           25.401            6.182  # CT1
     217      12    25      0.09           85.793           24.523            5.548  # HB1
     218      12    37     -0.27           87.019           25.481             7.02  # CT3
     219      12    31      0.09           87.901           25.586            6.353  # HA3
     220      12    31      0.09           86.995           26.363            7.697  # HA3
     221      12    31      0.09           87.161           24.566            7.635  # HA3
     222      12    32      0.51           84.581           25.189            7.133  # C
     223      12    50     -0.51           84.105           24.061            7.285  # O
     224      13    46     -0.47           84.081           26.273            7.748  # NH1
     225      13    22      0.31           84.511           27.171            7.661  # H
     226      13    35     -0.02           82.884           26.225            8.581  # CT2
     227      13    26      0.09           82.677           27.237            8.901  # HB2
     228      13    26      0.09            83.08           25.534             9.39  # HB2
     229      13    32      0.51            81.67           25.716            7.813  # C
     230      13    50     -0.51           80.962           24.817            8.276  # O
     231      14    46     -0.47           81.449           26.263            6.611  # NH1
     232      14    22      0.31           81.985           27.021            6.245  # H
     233      14    34      0.07            80.39           25.787            5.727  # CT1
     234      14    25      0.09           79.476           25.862            6.304  # HB1
     235      14    35     -0.18           80.263           26.654            4.475  # CT2
     236      14    30      0.09           81.266            26.77            4.009  # HA2
     237      14    30      0.09           79.606           26.165            3.723  # HA2
     238      14    33         0           79.748           28.064            4.723  # CA
     239      14    33    -0.115           78.666           28.281            5.557  # CA
     240      14    24     0.115           78.154           27.439            6.003  # HP
     241      14    33    -0.115            78.23           29.564              5.8  # CA
     242      14    24     0.115           77.383           29.743            6.446  # HP
     243      14    33      0.11            78.88           30.623            5.205  # CA
     244      14    52     -0.54           78.454           31.909            5.462  # OH1
     245      14    22      0.43            77.71           31.862            6.084  # H
     246      14    33    -0.115           80.381           29.131            4.116  # CA
     247      14    24     0.115           81.189           28.955             3.42  # HP
     248      14    33    -0.115           79.948           30.416            4.361  # CA
     249      14    24     0.115           80.435           31.248            3.874  # HP
     250      14    32      0.51           80.546           24.329            5.322  # C
     251      14    50     -0.51           79.566           23.584            5.356  # O
     252      15    46     -0.47            81.76           23.885            4.971  # NH1
     253      15    22      0.31           82.553           24.485            4.887  # H
     254      15    34      0.07           82.036           22.481            4.678  # CT1
     255      15    25      0.09            81.38           22.221            3.857  # HB1
     256      15    35     -0.18           83.489           22.299            4.249  # CT2